Siesta Version  : unreleased efed74033 (2021-09-28)
Architecture    : common-installer
Compiler version: ifort (IFORT) 19.1.1.217 20200306
Compiler flags  : mpiifort -O2
PP flags        : -DF2003  -DSIESTA__ELSI  -DNCDF -DNCDF_4 -DCDF  -DMPI -DMPI_TIMING -DSIESTA__FLOOK
Libraries       : libncdf.a libfdict.a libfdict.a  -L/opt/RES/libs/Siesta/elsi/2.6.2//lib -lelsi -lfortjson -lOMM -lMatrixSwitch -lNTPoly -lpexsi -lsuperlu_dist -lptscotchparmetis -lptscotch -lptscotcherr -lscotchmetis -lscotch -lscotcherr -L/opt/RES/libs/Siesta/elpa-2019.05.002//lib -lelpa  -L/opt/shared/apps/netCDF/4.4.1.1-intel/lib -lnetcdff -L/opt/RES/apps/flook/0.8.1//lib -lflookall -ldl /opt/intel/compilers_and_libraries_2020.1.217/linux/mkl/lib/intel64/libmkl_scalapack_lp64.a -Wl,--start-group /opt/intel/compilers_and_libraries_2020.1.217/linux/mkl/lib/intel64/libmkl_intel_lp64.a /opt/intel/compilers_and_libraries_2020.1.217/linux/mkl/lib/intel64/libmkl_sequential.a /opt/intel/compilers_and_libraries_2020.1.217/linux/mkl/lib/intel64/libmkl_core.a /opt/intel/compilers_and_libraries_2020.1.217/linux/mkl/lib/intel64/libmkl_blacs_intelmpi_lp64.a -Wl,--end-group -lpthread -lm -ldl
Parallelisations: MPI.
NetCDF support
NetCDF-4 support
Lua support
ELSI interface

Runtime information:
* Directory : /data/scratch/Unim/Achilli/Silicene/4r3x4r3/Si-Sn-SnAg-Ag/4x4-refine
* Running on 16 nodes in parallel.
>> Start of run:   1-FEB-2022  11:22:40

                           *********************** 
                           *  WELCOME TO SIESTA  * 
                           *********************** 

reinit: Reading from standard input
reinit: Dumping input in INPUT_TMP.86398
************************** Dump of input data file ****************************
SystemName   Sn-Si-Ag
SystemLabel  Sn-Si-Ag
NumberOfAtoms   230
NumberOfSpecies   3
%block ChemicalSpeciesLabel
   1   14   Si
   2   47   Ag
   3   50   Sn
%endblock ChemicalSpeciesLabel
AtomicCoordinatesFormat ScaledCartesian
LatticeConstant   2.942 Ang
%block LatticeVectors
  6.00000   -3.464101615137754  0.0
  0.00000    6.928203230275508  0.0
  0.00000    0.00000           10.00000
%endblock LatticeVectors
#%include structure.fdf
 WriteCoorXmol  T           # writes .xyz file in Ang
%block kgrid_Monkhorst_Pack
   2   0   0    0.0
   0   2   0    0.0
   0   0   1    0.0
%endblock kgrid_Monkhorst_Pack
XC.functional          GGA
XC.authors             PBE
MM.UnitsDistance Ang  # what this program prints out DO NOT CHANGE
MM.UnitsEnergy    eV  # what this program prints out DO NOT CHANGE
MM.Grimme.S6     0.75 # Grimme-paper for PBE (correct for your functional)
MM.Grimme.D     20.   # Grimme-paper (correct for your functional)
%block MM.Potentials
  1   2 Grimme    156.40      3.355 # Si / Ag
  1   3 Grimme    195.91      3.520 # Si / Sn
  2   3 Grimme    320.29      3.443 # Ag / Sn
%endblock MM.Potentials
MeshCutoff             450 Ry
###  SCF
MaxSCFIterations       100
SCF.Mix.First          T             # the first SCF is mixed
SCF.Mixer.Method       Broyden         #Pulay|Broyden|Linear
SCF.Mixer.History      7        #old DM.NumberPulay  5
DM.MixingWeight        0.08      #0.0100
#SCF.Mixer.Kick         35
#SCF.Mixer.Kick.Weight  0.2
DM.UseSaveDM           .true.
DM.Tolerance           1.d-6     #1.d-5
OccupationFunction     FD
#ElectronicTemperature  100 K   #= 8.6 meV
#SolutionMethod        diagon
### Spin Polarized calculation (default F)
SpinPolarized  F
NonCollinearSpin    F
FixSpin  F
##TotalSpin           0.0   #not read if FixSpin F. TotalSpin pol in units of 1/2
### relax
UseStructFile        .true.
#MD.TypeOfRun       CG
MD.TypeOfRun       FIRE
MD.FIRE.TimeStep   0.9 fs
MD.NumCGsteps     100          # 100
MD.MaxForceTol     0.04 eV/Ang   #0.001 eV/Ang     #default: 0.04 eV/Ang #1.0e-03 eV/Ang
MD.MaxDispl      0.12  Ang      # Maximum atomic displacement in 1 CG step
#MD.VariableCell    F
%block GeometryConstraints
position from 135   to 230
%endblock GeometryConstraints
WriteCoorXmol           true
WriteCoorCerius         true
WriteXML                F
SaveRho                 .true.       # Write valence pseudocharge at the mesh
#SaveDeltaRho            .true.       # Write RHOscf-RHOatm at the mesh
#SaveElectrostaticPotential .true.    # Write the total elect. pot. at the mesh
#SaveTotalPotential      .true.       # Write the total pot. at the mesh
SaveTotalCharge         .true.
#SaveIonicCharge         .true.
WriteForces   .true.
WriteCoorStep .true.
WriteDenchar  .true.
WriteMullikenPop       1
### basis
#PAO.BasisType         split
#PAO.SplitNorm         0.15
#PAO.EnergyShift       272 meV
PAO.BasisSize         DZP
#DOS
%block PDOS.kgrid_Monkhorst_Pack
  10   0   0   0.0
  0   10   0   0.0
  0   0   1   0.0
%endblock PDOS.kgrid_Monkhorst_Pack
%block ProjectedDensityOfStates
-13.00 2.00 0.120 350 eV
%endblock ProjectedDensityOfStates
************************** End of input data file *****************************

reinit: -----------------------------------------------------------------------
reinit: System Name: Sn-Si-Ag
reinit: -----------------------------------------------------------------------
reinit: System Label: Sn-Si-Ag
reinit: -----------------------------------------------------------------------
Reading two-body potentials
Grimme - two-body potential between 1 and 2
Grimme - two-body potential between 1 and 3
Grimme - two-body potential between 2 and 3

initatom: Reading input for the pseudopotentials and atomic orbitals ----------
Species number:   1 Atomic number:   14 Label: Si
Species number:   2 Atomic number:   47 Label: Ag
Species number:   3 Atomic number:   50 Label: Sn
 

 ---- Processing specs for species: Si
Ground state valence configuration:   3s02  3p02
PSML file version: 1.1
Using libxc ids:  101 130
GGA--PBE XC_GGA_X_PBE--XC_GGA_C_PBE pb
 Using ATOM defaults for log grid...
PSML uuid: 78f1be70-be41-11e7-6330-179677bb7285

 ---- Processing specs for species: Ag
Ground state valence configuration:   5s01  4d10
PSML file version: 1.1
Using libxc ids:  101 130
GGA--PBE XC_GGA_X_PBE--XC_GGA_C_PBE pb
 Using ATOM defaults for log grid...
PSML uuid: 19539b60-be45-11e7-6f7e-27f8e9face14

 ---- Processing specs for species: Sn
Ground state valence configuration:   5s02  5p02
PSML file version: 1.1
Using libxc ids:  101 130
GGA--PBE XC_GGA_X_PBE--XC_GGA_C_PBE pb
 Using ATOM defaults for log grid...
PSML uuid: 3ce1eeb0-be45-11e7-559c-c451ff5abc41
Semicore shell(s) with  8 electrons included in the valence for Ag
Semicore shell(s) with 10 electrons included in the valence for Sn

---- Pseudopotential check for Si

Pseudized shells:
3s( 2.00) rc: 1.60
3p( 2.00) rc: 1.72
3d( 0.00) rc: 1.92
Valence configuration for ps generation: 3s:3p: Total charge:   4.000000

---- Pseudopotential check for Ag

Pseudized shells:
4s( 2.00) rc: 1.41
4p( 6.00) rc: 1.47
4d(10.00) rc: 1.61
Valence configuration for ps generation: 4s:4p:4d:5s: Total charge:  19.000000
Semicore shell(s): 4s 4p

---- Pseudopotential check for Sn

Pseudized shells:
5s( 2.00) rc: 2.27
5p( 2.00) rc: 2.62
4d(10.00) rc: 1.86
Valence configuration for ps generation: 4d:5s:5p: Total charge:  14.000000
Semicore shell(s): 4d
For Si, standard SIESTA heuristics set lmxkb to 3
 (one more than the basis l, including polarization orbitals).
Use PS.lmax or PS.KBprojectors blocks to override.
For Ag, standard SIESTA heuristics set lmxkb to 3
 (one more than the basis l, including polarization orbitals).
Use PS.lmax or PS.KBprojectors blocks to override.
For Sn, standard SIESTA heuristics set lmxkb to 3
 (one more than the basis l, including polarization orbitals).
Use PS.lmax or PS.KBprojectors blocks to override.
Si pseudopotential only contains V_ls up to l=2 -- lmxkb reset.
Ag pseudopotential only contains V_ls up to l=2 -- lmxkb reset.
Sn pseudopotential only contains V_ls up to l=2 -- lmxkb reset.

<basis_specs>
===============================================================================
Si                   Z=  14    Mass=  28.090        Charge= 0.17977+309
Lmxo=2 Lmxkb= 2    BasisType=split      Semic=F
L=0  Nsemic=0  Cnfigmx=3
          i=1  nzeta=2  polorb=0  (3s)
            splnorm:   0.15000    
               vcte:    0.0000    
               rinn:    0.0000    
               qcoe:    0.0000    
               qyuk:    0.0000    
               qwid:   0.10000E-01
                rcs:    0.0000      0.0000    
            lambdas:    1.0000      1.0000    
L=1  Nsemic=0  Cnfigmx=3
          i=1  nzeta=2  polorb=1  (3p)  (to be polarized perturbatively)
            splnorm:   0.15000    
               vcte:    0.0000    
               rinn:    0.0000    
               qcoe:    0.0000    
               qyuk:    0.0000    
               qwid:   0.10000E-01
                rcs:    0.0000      0.0000    
            lambdas:    1.0000      1.0000    
L=2  Nsemic=0  Cnfigmx=3
          i=1  nzeta=0  polorb=0  (3d)  (perturbative polarization orbital)
-------------------------------------------------------------------------------
L=0  Nkbl=1  erefs: 0.17977+309
L=1  Nkbl=1  erefs: 0.17977+309
L=2  Nkbl=1  erefs: 0.17977+309
===============================================================================
</basis_specs>

atom: Called for Si                    (Z =  14)

read_vps: Pseudopotential generation method:
read_vps: ONCVPSP-3.Hamann's oncvpsp                        
Valence charge in pseudo generation:    4.00000

read_vps: Pseudopotential includes a core correction:
read_vps: Pseudo-core for xc-correction

xc_check: Exchange-correlation functional:
xc_check: GGA Perdew, Burke & Ernzerhof 1996
Got Vlocal (oncv-fit) from psml data
Choosing vlocal chloc cutoff:  4.645526
qtot up to nchloc:    3.99912657
atom: Maximum radius forchloc:    4.64553
atom: Maximum radius for r*vlocal+2*Zval:    4.64553
Reading KB projs from Si psml data
Using scalar-relativistic projectors in PSML file

PSML: Kleinman-Bylander projectors: 
   l= 0   rc=  1.625530   Ekb= 10.337930
   l= 0   rc=  1.625530   Ekb=  1.659765
   l= 1   rc=  1.752147   Ekb=  5.142565
   l= 1   rc=  1.752147   Ekb=  1.156614
   l= 2   rc=  1.960800   Ekb= -4.854621
   l= 2   rc=  1.960800   Ekb= -0.976194

PSML: Total number of  Kleinman-Bylander projectors:  18
atom: -------------------------------------------------------------------------

atom: SANKEY-TYPE ORBITALS:
atom: Selected multiple-zeta basis: split     

SPLIT: Orbitals with angular momentum L= 0

SPLIT: Basis orbitals for state 3s

SPLIT: PAO cut-off radius determined from an
SPLIT: energy shift=  0.020000 Ry

   izeta = 1
                 lambda =    1.000000
                     rc =    5.007352
                 energy =   -0.776280
                kinetic =    0.606317
    potential(screened) =   -1.382597
       potential(ionic) =   -3.806997

   izeta = 2
                 rmatch =    4.418952
              splitnorm =    0.150000
                 energy =   -0.666057
                kinetic =    0.943711
    potential(screened) =   -1.609768
       potential(ionic) =   -4.128572

SPLIT: Orbitals with angular momentum L= 1

SPLIT: Basis orbitals for state 3p

SPLIT: PAO cut-off radius determined from an
SPLIT: energy shift=  0.020000 Ry

   izeta = 1
                 lambda =    1.000000
                     rc =    6.270866
                 energy =   -0.281869
                kinetic =    0.876401
    potential(screened) =   -1.158270
       potential(ionic) =   -3.393179

   izeta = 2
                 rmatch =    5.007352
              splitnorm =    0.150000
                 energy =   -0.188102
                kinetic =    1.264231
    potential(screened) =   -1.452333
       potential(ionic) =   -3.858737

POLgen: Perturbative polarization orbital with L=  2

POLgen: Polarization orbital for state 3p

   izeta = 1
                     rc =    6.270866
                 energy =    0.440159
                kinetic =    1.303833
    potential(screened) =   -0.863673
       potential(ionic) =   -2.928134
atom: Total number of Sankey-type orbitals: 13

atm_pop: Valence configuration (for local Pseudopot. screening):
 3s( 2.00)                                                            
 3p( 2.00)                                                            
 3d( 0.00)                                                            
Vna: chval, zval:    4.00000   4.00000

Vna:  Cut-off radius for the neutral-atom potential:   6.270866
comcore: Pseudo-core radius Rcore=  2.888916

atom: _________________________________________________________________________

<basis_specs>
===============================================================================
Ag                   Z=  47    Mass=  107.87        Charge= 0.17977+309
Lmxo=2 Lmxkb= 2    BasisType=split      Semic=T
L=0  Nsemic=1  Cnfigmx=5
          i=1  nzeta=1  polorb=0  (4s)
            splnorm:   0.15000    
               vcte:    0.0000    
               rinn:    0.0000    
               qcoe:    0.0000    
               qyuk:    0.0000    
               qwid:   0.10000E-01
                rcs:    0.0000    
            lambdas:    1.0000    
          i=2  nzeta=2  polorb=0  (5s)  (to be polarized non-perturbatively)
            splnorm:   0.15000    
               vcte:    0.0000    
               rinn:    0.0000    
               qcoe:    0.0000    
               qyuk:    0.0000    
               qwid:   0.10000E-01
                rcs:    0.0000      0.0000    
            lambdas:    1.0000      1.0000    
L=1  Nsemic=1  Cnfigmx=5
          i=1  nzeta=1  polorb=0  (4p)
            splnorm:   0.15000    
               vcte:    0.0000    
               rinn:    0.0000    
               qcoe:    0.0000    
               qyuk:    0.0000    
               qwid:   0.10000E-01
                rcs:    0.0000    
            lambdas:    1.0000    
          i=2  nzeta=1  polorb=0  (5p)  (non-perturbative polarization shell)
            splnorm:   0.15000    
               vcte:    0.0000    
               rinn:    0.0000    
               qcoe:    0.0000    
               qyuk:    0.0000    
               qwid:   0.10000E-01
                rcs:    0.0000    
            lambdas:    1.0000    
L=2  Nsemic=0  Cnfigmx=4
          i=1  nzeta=2  polorb=0  (4d)
            splnorm:   0.15000    
               vcte:    0.0000    
               rinn:    0.0000    
               qcoe:    0.0000    
               qyuk:    0.0000    
               qwid:   0.10000E-01
                rcs:    0.0000      0.0000    
            lambdas:    1.0000      1.0000    
-------------------------------------------------------------------------------
L=0  Nkbl=2  erefs: 0.17977+309 0.17977+309
L=1  Nkbl=2  erefs: 0.17977+309 0.17977+309
L=2  Nkbl=1  erefs: 0.17977+309
===============================================================================
</basis_specs>

atom: Called for Ag                    (Z =  47)

read_vps: Pseudopotential generation method:
read_vps: ONCVPSP-3.Hamann's oncvpsp                        
Valence charge in pseudo generation:   19.00000

read_vps: Pseudopotential includes a core correction:
read_vps: Pseudo-core for xc-correction

xc_check: Exchange-correlation functional:
xc_check: GGA Perdew, Burke & Ernzerhof 1996
Got Vlocal (oncv-fit) from psml data
Choosing vlocal chloc cutoff:  5.682226
qtot up to nchloc:   19.00019520
atom: Maximum radius forchloc:    5.68223
atom: Maximum radius for r*vlocal+2*Zval:    5.68223
Reading KB projs from Ag psml data
Using scalar-relativistic projectors in PSML file

PSML: Kleinman-Bylander projectors: 
   l= 0   rc=  1.436652   Ekb= 19.115131
   l= 0   rc=  1.436652   Ekb= -0.829484
   l= 1   rc=  1.491552   Ekb=  6.886468
   l= 1   rc=  1.491552   Ekb= -0.267037
   l= 2   rc=  1.648425   Ekb= -3.194339
   l= 2   rc=  1.648425   Ekb= -0.782247

PSML: Total number of  Kleinman-Bylander projectors:  18
atom: -------------------------------------------------------------------------

atom: SANKEY-TYPE ORBITALS:
atom: Selected multiple-zeta basis: split     

SPLIT: Orbitals with angular momentum L= 0

SPLIT: Basis orbitals for state 4s

SPLIT: PAO cut-off radius determined from an
SPLIT: energy shift=  0.020000 Ry

   izeta = 1
                 lambda =    1.000000
                     rc =    2.339249
                 energy =   -6.966592
                kinetic =    2.952127
    potential(screened) =   -9.918719
       potential(ionic) =  -38.750642

SPLIT: Basis orbitals for state 5s

SPLIT: PAO cut-off radius determined from an
SPLIT: energy shift=  0.020000 Ry

   izeta = 1
                 lambda =    1.000000
                     rc =    6.358828
                 energy =   -0.356705
                kinetic =    1.126992
    potential(screened) =   -1.483698
       potential(ionic) =  -16.248228

   izeta = 2
                 rmatch =    5.899358
              splitnorm =    0.150000
                 energy =   -0.305263
                kinetic =    1.585895
    potential(screened) =   -1.891158
       potential(ionic) =  -18.313229

SPLIT: Orbitals with angular momentum L= 1

SPLIT: Basis orbitals for state 4p

SPLIT: PAO cut-off radius determined from an
SPLIT: energy shift=  0.020000 Ry

   izeta = 1
                 lambda =    1.000000
                     rc =    2.650723
                 energy =   -4.287067
                kinetic =    5.767706
    potential(screened) =  -10.054773
       potential(ionic) =  -37.937783

SPLIT: Basis orbitals for state 5p
SPLIT: Non-perturbative polarization orbs for state 5s
SPLIT: rc(1st zeta) reset to: 6.3588

   izeta = 1
                 lambda =    1.000000
                     rc =    6.358828
                 energy =    0.052155
                kinetic =    1.052817
    potential(screened) =   -1.000662
       potential(ionic) =  -13.140509

SPLIT: Orbitals with angular momentum L= 2

SPLIT: Basis orbitals for state 4d

SPLIT: PAO cut-off radius determined from an
SPLIT: energy shift=  0.020000 Ry

   izeta = 1
                 lambda =    1.000000
                     rc =    3.954440
                 energy =   -0.527479
                kinetic =    6.940630
    potential(screened) =   -7.468109
       potential(ionic) =  -31.763414

   izeta = 2
                 rmatch =    2.490121
              splitnorm =    0.150000
                 energy =   -0.178188
                kinetic =    9.626358
    potential(screened) =   -9.804546
       potential(ionic) =  -36.630833
atom: Total number of Sankey-type orbitals: 19

atm_pop: Valence configuration (for local Pseudopot. screening):
 4s( 2.00) 5s( 1.00)                                                  
 4p( 6.00) 5p( 0.00)                                                  
 4d(10.00)                                                            
Vna: chval, zval:   19.00000  19.00000

Vna:  Cut-off radius for the neutral-atom potential:   6.358828
comcore: Pseudo-core radius Rcore=  2.116635

atom: _________________________________________________________________________

<basis_specs>
===============================================================================
Sn                   Z=  50    Mass=  118.71        Charge= 0.17977+309
Lmxo=2 Lmxkb= 2    BasisType=split      Semic=T
L=0  Nsemic=0  Cnfigmx=5
          i=1  nzeta=2  polorb=0  (5s)
            splnorm:   0.15000    
               vcte:    0.0000    
               rinn:    0.0000    
               qcoe:    0.0000    
               qyuk:    0.0000    
               qwid:   0.10000E-01
                rcs:    0.0000      0.0000    
            lambdas:    1.0000      1.0000    
L=1  Nsemic=0  Cnfigmx=5
          i=1  nzeta=2  polorb=0  (5p)  (to be polarized non-perturbatively)
            splnorm:   0.15000    
               vcte:    0.0000    
               rinn:    0.0000    
               qcoe:    0.0000    
               qyuk:    0.0000    
               qwid:   0.10000E-01
                rcs:    0.0000      0.0000    
            lambdas:    1.0000      1.0000    
L=2  Nsemic=1  Cnfigmx=5
          i=1  nzeta=1  polorb=0  (4d)
            splnorm:   0.15000    
               vcte:    0.0000    
               rinn:    0.0000    
               qcoe:    0.0000    
               qyuk:    0.0000    
               qwid:   0.10000E-01
                rcs:    0.0000    
            lambdas:    1.0000    
          i=2  nzeta=1  polorb=0  (5d)  (non-perturbative polarization shell)
            splnorm:   0.15000    
               vcte:    0.0000    
               rinn:    0.0000    
               qcoe:    0.0000    
               qyuk:    0.0000    
               qwid:   0.10000E-01
                rcs:    0.0000    
            lambdas:    1.0000    
-------------------------------------------------------------------------------
L=0  Nkbl=1  erefs: 0.17977+309
L=1  Nkbl=1  erefs: 0.17977+309
L=2  Nkbl=2  erefs: 0.17977+309 0.17977+309
===============================================================================
</basis_specs>

atom: Called for Sn                    (Z =  50)

read_vps: Pseudopotential generation method:
read_vps: ONCVPSP-3.Hamann's oncvpsp                        
Valence charge in pseudo generation:   14.00000

read_vps: Pseudopotential includes a core correction:
read_vps: Pseudo-core for xc-correction

xc_check: Exchange-correlation functional:
xc_check: GGA Perdew, Burke & Ernzerhof 1996
Got Vlocal (oncv-fit) from psml data
Choosing vlocal chloc cutoff:  5.341293
qtot up to nchloc:   14.00055916
atom: Maximum radius forchloc:    5.34129
atom: Maximum radius for r*vlocal+2*Zval:    5.34129
Reading KB projs from Sn psml data
Using scalar-relativistic projectors in PSML file

PSML: Kleinman-Bylander projectors: 
   l= 0   rc=  2.311636   Ekb= 11.164368
   l= 0   rc=  2.311636   Ekb=  1.497939
   l= 1   rc=  2.685746   Ekb=  8.386758
   l= 1   rc=  2.685746   Ekb=  1.454633
   l= 2   rc=  1.892599   Ekb=-10.565496
   l= 2   rc=  1.892599   Ekb= -3.052858

PSML: Total number of  Kleinman-Bylander projectors:  18
atom: -------------------------------------------------------------------------

atom: SANKEY-TYPE ORBITALS:
atom: Selected multiple-zeta basis: split     

SPLIT: Orbitals with angular momentum L= 0

SPLIT: Basis orbitals for state 5s

SPLIT: PAO cut-off radius determined from an
SPLIT: energy shift=  0.020000 Ry

   izeta = 1
                 lambda =    1.000000
                     rc =    5.274942
                 energy =   -0.756774
                kinetic =    0.560237
    potential(screened) =   -1.317011
       potential(ionic) =  -12.700483

   izeta = 2
                 rmatch =    4.772960
              splitnorm =    0.150000
                 energy =   -0.632616
                kinetic =    0.891273
    potential(screened) =   -1.523889
       potential(ionic) =  -13.551098

SPLIT: Orbitals with angular momentum L= 1

SPLIT: Basis orbitals for state 5p

SPLIT: PAO cut-off radius determined from an
SPLIT: energy shift=  0.020000 Ry

   izeta = 1
                 lambda =    1.000000
                     rc =    6.773173
                 energy =   -0.252342
                kinetic =    0.652011
    potential(screened) =   -0.904352
       potential(ionic) =  -10.299302

   izeta = 2
                 rmatch =    5.615149
              splitnorm =    0.150000
                 energy =   -0.178265
                kinetic =    0.913586
    potential(screened) =   -1.091850
       potential(ionic) =  -11.585161

SPLIT: Orbitals with angular momentum L= 2

SPLIT: Basis orbitals for state 4d

SPLIT: PAO cut-off radius determined from an
SPLIT: energy shift=  0.020000 Ry

   izeta = 1
                 lambda =    1.000000
                     rc =    3.120400
                 energy =   -1.882107
                kinetic =    9.371664
    potential(screened) =  -11.253771
       potential(ionic) =  -28.338347

SPLIT: Basis orbitals for state 5d
SPLIT: Non-perturbative polarization orbs for state 5p
SPLIT: rc(1st zeta) reset to: 6.7732

   izeta = 1
                 lambda =    1.000000
                     rc =    6.773173
                 energy =    0.321130
                kinetic =    1.143438
    potential(screened) =   -0.822308
       potential(ionic) =   -7.993484
atom: Total number of Sankey-type orbitals: 18

atm_pop: Valence configuration (for local Pseudopot. screening):
 5s( 2.00)                                                            
 5p( 2.00)                                                            
 4d(10.00) 5d( 0.00)                                                  
Vna: chval, zval:   14.00000  14.00000

Vna:  Cut-off radius for the neutral-atom potential:   6.773173
comcore: Pseudo-core radius Rcore=  2.788376

atom: _________________________________________________________________________

prinput: Basis input 
* WARNING: This information might be incomplete!!!
----------------------------------------------------------

PAO.BasisType split     

%block ChemicalSpeciesLabel
    1   14 Si                      # Species index, atomic number, species label
    2   47 Ag                      # Species index, atomic number, species label
    3   50 Sn                      # Species index, atomic number, species label
%endblock ChemicalSpeciesLabel

%block PAO.Basis                 # Define Basis set
# WARNING: This information might be incomplete!!!
Si                    2                    # Species label, number of l-shells
 n=3   0   2                         # n, l, Nzeta 
   5.007      4.419   
   1.000      1.000   
 n=3   1   2 P   1                   # n, l, Nzeta, Polarization, NzetaPol
   6.271      5.007   
   1.000      1.000   
Ag                    5                    # Species label, number of l-shells
 n=4   0   1                         # n, l, Nzeta 
   2.339   
   1.000   
 n=5   0   2                         # n, l, Nzeta 
   6.359      5.899   
   1.000      1.000   
 n=4   1   1                         # n, l, Nzeta 
   2.651   
   1.000   
 n=5   1   1                         # n, l, Nzeta 
   6.359   
   1.000   
 n=4   2   2                         # n, l, Nzeta 
   3.954      2.490   
   1.000      1.000   
Sn                    4                    # Species label, number of l-shells
 n=5   0   2                         # n, l, Nzeta 
   5.275      4.773   
   1.000      1.000   
 n=5   1   2                         # n, l, Nzeta 
   6.773      5.615   
   1.000      1.000   
 n=4   2   1                         # n, l, Nzeta 
   3.120   
   1.000   
 n=5   2   1                         # n, l, Nzeta 
   6.773   
   1.000   
%endblock PAO.Basis

prinput: ----------------------------------------------------------------------

 CH_OVERLAP: Z1=   4.01032581957866       ZVAL1=   4.00000000000000     
 CH_OVERLAP: Z2=   4.01032581957866       ZVAL2=   4.00000000000000     
 CH_OVERLAP: Z1=   19.0093828439480       ZVAL1=   19.0000000000000     
 CH_OVERLAP: Z2=   19.0093828439480       ZVAL2=   19.0000000000000     
 CH_OVERLAP: Z1=   19.0093828439480       ZVAL1=   19.0000000000000     
 CH_OVERLAP: Z2=   4.01032581957866       ZVAL2=   4.00000000000000     
 CH_OVERLAP: Z1=   14.0138019145683       ZVAL1=   14.0000000000000     
 CH_OVERLAP: Z2=   14.0138019145683       ZVAL2=   14.0000000000000     
 CH_OVERLAP: Z1=   14.0138019145683       ZVAL1=   14.0000000000000     
 CH_OVERLAP: Z2=   19.0093828439480       ZVAL2=   19.0000000000000     
 CH_OVERLAP: Z1=   14.0138019145683       ZVAL1=   14.0000000000000     
 CH_OVERLAP: Z2=   4.01032581957866       ZVAL2=   4.00000000000000     
Dumping basis to NetCDF file Si.ion.nc
Dumping basis to NetCDF file Ag.ion.nc
Dumping basis to NetCDF file Sn.ion.nc
  -- Read structural information from Sn-Si-Ag.STRUCT_IN

siesta: Atomic coordinates (Bohr) and species
siesta:      1.19388   1.85455   9.27683  1        1
siesta:      4.67193   3.87857  11.23259  1        2
siesta:     12.16299   8.06719   9.46913  1        3
siesta:     -6.32308  10.71750   9.76944  1        4
siesta:      1.07163  14.82857  11.40745  1        5
siesta:      4.76361  16.74335   9.91994  1        6
siesta:      4.68817   8.08382   9.70785  1        7
siesta:      8.42919  10.56936   9.88191  1        8
siesta:     -6.42741  14.89577  11.46055  1        9
siesta:     -2.65614  16.84787   9.98591  1       10
siesta:     15.85456   1.94989   9.85094  1       11
siesta:      8.52665  14.81487  11.30054  1       12
siesta:    -10.08708  16.74415   9.58397  1       13
siesta:      8.47877   1.95291   9.80293  1       14
siesta:     12.17088   4.00748  11.29772  1       15
siesta:     -2.73371   8.29090  10.92830  1       16
siesta:      0.96983  10.59810  10.00729  1       17
siesta:     -2.64827   4.15384   9.12548  1       18
siesta:     23.61416   1.97916   9.59631  1       19
siesta:     26.95772   4.03267  11.75189  1       20
siesta:     34.32966   8.33868  10.66494  1       21
siesta:     16.01087  10.39157   9.18737  1       22
siesta:     23.35482  14.74408  10.99511  1       23
siesta:     27.15096  16.65883   9.59884  1       24
siesta:     26.98093   8.11232   9.94840  1       25
siesta:     30.59623  10.69441  10.22983  1       26
siesta:     15.79033  14.59144  10.92815  1       27
siesta:     19.56936  16.81540   9.98544  1       28
siesta:     38.21744   1.99476   9.33618  1       29
siesta:     30.58310  14.81145  11.85393  1       30
siesta:     12.10942  16.71871   9.32559  1       31
siesta:     30.65421   2.06431  10.21827  1       32
siesta:     34.54202   3.93946  10.98004  1       33
siesta:     19.46071   8.28693  11.38704  1       34
siesta:     23.16194  10.43917  10.00076  1       35
siesta:     19.72276   4.21247   9.47104  1       36
siesta:     12.32585  21.27142   9.62403  1       37
siesta:     15.84009  23.35161  11.45500  1       38
siesta:     23.30337  27.50115   9.87027  1       39
siesta:      4.78168  29.76465  10.67031  1       40
siesta:     12.19621  33.98119  11.57857  1       41
siesta:     15.86856  35.99388   9.95427  1       42
siesta:     15.83876  27.47662   9.68409  1       43
siesta:     19.56536  29.96723   9.89520  1       44
siesta:      4.72426  34.11185  10.86350  1       45
siesta:      8.59942  35.96815   9.81685  1       46
siesta:     26.92085  21.14108   9.73895  1       47
siesta:     19.64362  34.14115  11.44953  1       48
siesta:      0.78739  35.90694   9.84422  1       49
siesta:     19.57069  21.30990  10.00984  1       50
siesta:     23.35811  23.28637  11.30120  1       51
siesta:      8.49639  27.44837  10.13100  1       52
siesta:     12.12969  29.99561   9.51761  1       53
siesta:      8.51060  23.08894  11.08903  1       54
siesta:      3.24262   0.93220   4.70003  3       55
siesta:      3.06407   6.89254   4.81852  3       56
siesta:      9.67243  -5.72556   5.48681  3       57
siesta:      9.08965   1.43655   4.74095  3       58
siesta:     19.68924  -6.87699   5.02795  3       59
siesta:     14.91931  -3.28124   4.95720  3       60
siesta:     30.28764 -11.73491   5.06450  3       61
siesta:     23.90403 -11.85439   4.82297  3       62
siesta:      1.18748  12.75017   5.16753  3       63
siesta:     -3.15225  16.91232   4.87785  3       64
siesta:     10.14000   7.15626   4.77751  3       65
siesta:      6.96343  12.37106   5.12432  3       66
siesta:     20.29483  -0.46261   4.85694  3       67
siesta:     15.01939   2.99266   4.86569  3       68
siesta:     25.39960  -5.56166   5.48494  3       69
siesta:     26.04593   2.11651   4.94889  3       70
siesta:      3.29636  18.85484   4.90224  3       71
siesta:     -1.25432  22.83288   5.18388  3       72
siesta:     13.28752  13.04840   5.10955  3       73
siesta:      9.24848  17.82780   4.87530  3       74
siesta:     18.89062   7.85484   5.33930  3       75
siesta:     18.30885  15.96141   4.95217  3       76
siesta:     27.84683   7.79704   4.91829  3       77
siesta:     22.95280  12.35870   5.08502  3       78
siesta:      1.46855  27.95581   5.45121  3       79
siesta:      1.37788  33.74101   5.13064  3       80
siesta:     11.44582  23.38444   4.89693  3       81
siesta:      7.26261  27.30416   5.04658  3       82
siesta:     20.30668  21.54161   4.94964  3       83
siesta:     16.61593  26.05478   4.86704  3       84
siesta:     28.78533  14.01834   5.36331  3       85
siesta:     26.25479  21.30453   4.68830  3       86
siesta:     -0.15634  -0.05913   0.08079  3       87
siesta:      5.69308  -0.09228  -0.18600  2       88
siesta:      2.78963   4.73313  -0.14166  2       89
siesta:      8.22183  -4.88288  -0.07341  3       90
siesta:     13.83258  -4.91512  -0.05156  2       91
siesta:     11.24326  -0.08596   0.02397  2       92
siesta:     16.55254  -9.54000  -0.04288  3       93
siesta:     22.21102  -9.61826   0.08250  2       94
siesta:     19.45918  -4.79708  -0.04144  2       95
siesta:     25.04126 -14.43687  -0.42921  3       96
siesta:     30.58655 -14.47707   0.05722  2       97
siesta:     27.77917  -9.59684   0.06853  2       98
siesta:     -0.10156   9.70095  -0.16667  3       99
siesta:      5.51028   9.55823   0.14485  2      100
siesta:      2.80931  14.44702  -0.06182  2      101
siesta:      8.30718   4.80819  -0.31326  3      102
siesta:     13.87452   4.90579  -0.09394  2      103
siesta:     11.14940   9.68955   0.06213  2      104
siesta:     16.68214  -0.02050  -0.20875  3      105
siesta:     22.36031  -0.07118  -0.00903  2      106
siesta:     19.45983   4.65562   0.09141  2      107
siesta:     25.02093  -4.81672  -0.20817  3      108
siesta:     30.56421  -4.83414  -0.00310  2      109
siesta:     27.80411   0.00567  -0.09191  2      110
siesta:     -0.02569  19.26942  -0.21933  3      111
siesta:      5.55902  19.26171  -0.03069  2      112
siesta:      2.78594  24.06603   0.19064  2      113
siesta:      8.34362  14.45230  -0.27208  3      114
siesta:     13.89395  14.45985  -0.05076  2      115
siesta:     11.25204  19.21126   0.05121  2      116
siesta:     16.66674   9.63363   0.00415  3      117
siesta:     22.21622   9.53517  -0.01294  2      118
siesta:     19.46291  14.30727  -0.16215  2      119
siesta:     24.87355   4.88963  -0.04732  3      120
siesta:     30.56821   4.80019  -0.11066  2      121
siesta:     27.79680   9.65502  -0.01628  2      122
siesta:     -0.02049  28.88621  -0.12788  3      123
siesta:      5.54253  28.89261  -0.03822  2      124
siesta:      2.79282  33.70959  -0.01247  2      125
siesta:      8.20971  23.98530  -0.18181  3      126
siesta:     13.89592  24.05501  -0.15183  2      127
siesta:     11.10914  28.84713   0.14030  2      128
siesta:     16.67629  19.27622   0.06812  3      129
siesta:     22.23380  19.09995   0.04013  2      130
siesta:     19.58695  24.02224  -0.13975  2      131
siesta:     25.04514  14.44519  -0.07885  3      132
siesta:     30.58823  14.40869   0.02539  2      133
siesta:     27.79728  19.11657   0.10162  2      134
siesta:      2.77979   1.60491  -4.53938  2      135
siesta:      8.33936   1.60491  -4.53938  2      136
siesta:      5.55958   6.41965  -4.53938  2      137
siesta:     11.11915  -3.20982  -4.53938  2      138
siesta:     16.67873  -3.20982  -4.53938  2      139
siesta:     13.89894   1.60491  -4.53938  2      140
siesta:     19.45852  -8.02456  -4.53938  2      141
siesta:     25.01809  -8.02456  -4.53938  2      142
siesta:     22.23831  -3.20982  -4.53938  2      143
siesta:     27.79788 -12.83929  -4.53938  2      144
siesta:     33.35746 -12.83929  -4.53938  2      145
siesta:     30.57767  -8.02456  -4.53938  2      146
siesta:      2.77979  11.23438  -4.53938  2      147
siesta:      8.33936  11.23438  -4.53938  2      148
siesta:      5.55958  16.04911  -4.53938  2      149
siesta:     11.11915   6.41965  -4.53938  2      150
siesta:     16.67873   6.41965  -4.53938  2      151
siesta:     13.89894  11.23438  -4.53938  2      152
siesta:     19.45852   1.60491  -4.53938  2      153
siesta:     25.01809   1.60491  -4.53938  2      154
siesta:     22.23831   6.41965  -4.53938  2      155
siesta:     27.79788  -3.20982  -4.53938  2      156
siesta:     33.35746  -3.20982  -4.53938  2      157
siesta:     30.57767   1.60491  -4.53938  2      158
siesta:      2.77979  20.86385  -4.53938  2      159
siesta:      8.33936  20.86385  -4.53938  2      160
siesta:      5.55958  25.67858  -4.53938  2      161
siesta:     11.11915  16.04911  -4.53938  2      162
siesta:     16.67873  16.04911  -4.53938  2      163
siesta:     13.89894  20.86385  -4.53938  2      164
siesta:     19.45852  11.23438  -4.53938  2      165
siesta:     25.01809  11.23438  -4.53938  2      166
siesta:     22.23831  16.04911  -4.53938  2      167
siesta:     27.79788   6.41965  -4.53938  2      168
siesta:     33.35746   6.41965  -4.53938  2      169
siesta:     30.57767  11.23438  -4.53938  2      170
siesta:      2.77979  30.49332  -4.53938  2      171
siesta:      8.33936  30.49332  -4.53938  2      172
siesta:      5.55958  35.30805  -4.53938  2      173
siesta:     11.11915  25.67858  -4.53938  2      174
siesta:     16.67873  25.67858  -4.53938  2      175
siesta:     13.89894  30.49332  -4.53938  2      176
siesta:     19.45852  20.86385  -4.53938  2      177
siesta:     25.01809  20.86385  -4.53938  2      178
siesta:     22.23831  25.67858  -4.53938  2      179
siesta:     27.79788  16.04911  -4.53938  2      180
siesta:     33.35746  16.04911  -4.53938  2      181
siesta:     30.57767  20.86385  -4.53938  2      182
siesta:      0.00000   3.20982  -9.07875  2      183
siesta:      5.55958   3.20982  -9.07875  2      184
siesta:      2.77979   8.02456  -9.07875  2      185
siesta:      8.33936  -1.60491  -9.07875  2      186
siesta:     13.89894  -1.60491  -9.07875  2      187
siesta:     11.11915   3.20982  -9.07875  2      188
siesta:     16.67873  -6.41965  -9.07875  2      189
siesta:     22.23831  -6.41965  -9.07875  2      190
siesta:     19.45852  -1.60491  -9.07875  2      191
siesta:     25.01809 -11.23438  -9.07875  2      192
siesta:     30.57767 -11.23438  -9.07875  2      193
siesta:     27.79788  -6.41965  -9.07875  2      194
siesta:      0.00000  12.83929  -9.07875  2      195
siesta:      5.55958  12.83929  -9.07875  2      196
siesta:      2.77979  17.65403  -9.07875  2      197
siesta:      8.33936   8.02456  -9.07875  2      198
siesta:     13.89894   8.02456  -9.07875  2      199
siesta:     11.11915  12.83929  -9.07875  2      200
siesta:     16.67873   3.20982  -9.07875  2      201
siesta:     22.23831   3.20982  -9.07875  2      202
siesta:     19.45852   8.02456  -9.07875  2      203
siesta:     25.01809  -1.60491  -9.07875  2      204
siesta:     30.57767  -1.60491  -9.07875  2      205
siesta:     27.79788   3.20982  -9.07875  2      206
siesta:      0.00000  22.46876  -9.07875  2      207
siesta:      5.55958  22.46876  -9.07875  2      208
siesta:      2.77979  27.28350  -9.07875  2      209
siesta:      8.33936  17.65403  -9.07875  2      210
siesta:     13.89894  17.65403  -9.07875  2      211
siesta:     11.11915  22.46876  -9.07875  2      212
siesta:     16.67873  12.83929  -9.07875  2      213
siesta:     22.23831  12.83929  -9.07875  2      214
siesta:     19.45852  17.65403  -9.07875  2      215
siesta:     25.01809   8.02456  -9.07875  2      216
siesta:     30.57767   8.02456  -9.07875  2      217
siesta:     27.79788  12.83929  -9.07875  2      218
siesta:      0.00000  32.09823  -9.07875  2      219
siesta:      5.55958  32.09823  -9.07875  2      220
siesta:      2.77979  36.91296  -9.07875  2      221
siesta:      8.33936  27.28350  -9.07875  2      222
siesta:     13.89894  27.28350  -9.07875  2      223
siesta:     11.11915  32.09823  -9.07875  2      224
siesta:     16.67873  22.46876  -9.07875  2      225
siesta:     22.23831  22.46876  -9.07875  2      226
siesta:     19.45852  27.28350  -9.07875  2      227
siesta:     25.01809  17.65403  -9.07875  2      228
siesta:     30.57767  17.65403  -9.07875  2      229
siesta:     27.79788  22.46876  -9.07875  2      230

siesta: System type = slab      

initatomlists: Number of atoms, orbitals, and projectors:    230  3998  4140

coxmol: Writing XMOL coordinates into file Sn-Si-Ag.xyz                                                                                                                                                                                                                        

siesta: ******************** Simulation parameters ****************************
siesta:
siesta: The following are some of the parameters of the simulation.
siesta: A complete list of the parameters used, including default values,
siesta: can be found in file out.fdf
siesta:
redata: Spin configuration                          = none
redata: Number of spin components                   = 1
redata: Time-Reversal Symmetry                      = T
redata: Spin spiral                                 = F
redata: Long output                                 =   F
redata: Number of Atomic Species                    =        3
redata: Charge density info will appear in .RHO file
redata: Write Mulliken Pop.                         = Atomic and Orbital charges
redata: Matel table size (NRTAB)                    =     1024
redata: Mesh Cutoff                                 =   450.0000 Ry
redata: Net charge of the system                    =     0.0000 |e|
redata: Min. number of SCF Iter                     =        0
redata: Max. number of SCF Iter                     =      100
redata: SCF convergence failure will abort job
redata: SCF mix quantity                            = Hamiltonian
redata: Mix DM or H after convergence               =   F
redata: Recompute H after scf cycle                 =   F
redata: Mix DM in first SCF step                    =   T
redata: Write Pulay info on disk                    =   F
redata: New DM Occupancy tolerance                  = 0.000000000001
redata: No kicks to SCF
redata: DM Mixing Weight for Kicks                  =     0.5000
redata: Require Harris convergence for SCF          =   F
redata: Harris energy tolerance for SCF             =     0.000100 eV
redata: Require DM convergence for SCF              =   T
redata: DM tolerance for SCF                        =     0.000001
redata: Require EDM convergence for SCF             =   F
redata: EDM tolerance for SCF                       =     0.001000 eV
redata: Require H convergence for SCF               =   T
redata: Hamiltonian tolerance for SCF               =     0.001000 eV
redata: Require (free) Energy convergence for SCF   =   F
redata: (free) Energy tolerance for SCF             =     0.000100 eV
redata: Using Saved Data (generic)                  =   F
redata: Use continuation files for DM               =   T
redata: Neglect nonoverlap interactions             =   F
redata: Method of Calculation                       = Diagonalization
redata: Electronic Temperature                      =   299.9869 K
redata: Fix the spin of the system                  =   F
redata: Max. number of TDED Iter                    =        1
redata: Number of TDED substeps                     =        3
redata: Dynamics option                             = FIRE coord. optimization
redata: Variable cell                               =   F
redata: Use continuation files for CG               =   F
redata: Max atomic displ per move                   =     0.1200 Ang
redata: Maximum number of optimization moves        =      100
redata: Force tolerance                             =     0.0400 eV/Ang
mix.SCF: Broyden mixing                          = Broyden
mix.SCF:    History steps                        = 7
mix.SCF:    Linear mixing weight                 =     0.080000
mix.SCF:    Inverse Jacobian weight              =     0.080000
mix.SCF:    Weight prime                         =     0.080000
mix.SCF:    SVD condition                        = 0.1000E-07
redata: Save all siesta data in one NC              =   F
redata: ***********************************************************************

%block SCF.Mixers
  Broyden
%endblock SCF.Mixers

%block SCF.Mixer.Broyden
  # Mixing method
  method broyden

  # Mixing options
  weight 0.0800
  weight.linear 0.0800
  weight.prime 0.0800
  history 7
%endblock SCF.Mixer.Broyden
 
DM_history_depth set to one: no extrapolation allowed by default for geometry relaxation
Size of DM history Fstack: 1
Total number of electrons:  3320.000000
Total ionic charge:  3320.000000

* ProcessorY, Blocksize:    4  24


* Orbital distribution balance (max,min):   264   240

k-point displ. along   1 input, could be:     0.00    0.50
k-point displ. along   2 input, could be:     0.00    0.50
 Kpoints in:            4 . Kpoints trimmed:            4

siesta: k-grid: Number of k-points =         4
siesta: k-points from Monkhorst-Pack grid
siesta: k-cutoff (effective) =    14.710 Ang
siesta: k-point supercell and displacements
siesta: k-grid:    2   0   0      0.000
siesta: k-grid:    0   2   0      0.000
siesta: k-grid:    0   0   1      0.000
k-point displ. along   1 input, could be:     0.00    0.50
k-point displ. along   2 input, could be:     0.00    0.50
 Kpoints in:           60 . Kpoints trimmed:           56

siesta: PDOS k-grid: Number of k-points =        56
siesta: PDOS k-points from Monkhorst-Pack grid
siesta: PDOS k-cutoff (effective) =    14.710 Ang
siesta: PDOS k-point supercell and displacements
siesta: k-grid:   10   0   0      0.000
siesta: k-grid:    0  10   0      0.000
siesta: k-grid:    0   0   1      0.000
 
diag: Algorithm                                     = D&C
diag: Parallel over k                               =   F
diag: Use parallel 2D distribution                  =   T
diag: Parallel block-size                           = 24
diag: Parallel distribution                         =     4 x     4
diag: Used triangular part                          = Lower
diag: Absolute tolerance                            =  0.100E-15
diag: Orthogonalization factor                      =  0.100E-05
diag: Memory factor                                 =  1.0000

superc: Internal auxiliary supercell:     3 x     3 x     1  =       9
superc: Number of atoms, orbitals, and projectors:   2070  35982  37260
 
siesta: Constraint (96): pos
  [ 135 -- 230 ]
 
 
ts: **************************************************************
ts: Save H and S matrices                           =    F
ts: Save DM and EDM matrices                        =    F
ts: Only save the overlap matrix S                  =    F
ts: **************************************************************
 
************************ Begin: TS CHECKS AND WARNINGS ************************
************************ End: TS CHECKS AND WARNINGS **************************


                     ====================================
                        Begin FIRE opt. move =      0
                     ====================================

outcoor: Atomic coordinates (scaled):                       
    0.21474289    0.33357827    1.66862136   1       1  Si
    0.84033959    0.69763691    2.02040301   1       2  Si
    2.18775493    1.45104350    1.70321018   1       3  Si
   -1.13733125    1.92775500    1.75722825   1       4  Si
    0.19275424    2.66721209    2.05185629   1       5  Si
    0.85683046    3.01162339    1.78429755   1       6  Si
    0.84326021    1.45403592    1.74614943   1       7  Si
    1.51615693    1.90110799    1.77745669   1       8  Si
   -1.15609651    2.67930013    2.06140788   1       9  Si
   -0.47775922    3.03042255    1.79616432   1      10  Si
    2.85175745    0.35072548    1.77188661   1      11  Si
    1.53368698    2.66474749    2.03262621   1      12  Si
   -1.81436195    3.01176808    1.72386752   1      13  Si
    1.52507424    0.35126964    1.76325191   1      14  Si
    2.18917379    0.72082486    2.03211898   1      15  Si
   -0.49171165    1.49128271    1.96567145   1      16  Si
    0.17444267    1.90627781    1.80000965   1      17  Si
   -0.47634352    0.74715038    1.64139822   1      18  Si
    4.24747552    0.35599062    1.72608686   1      19  Si
    4.84887970    0.72535621    2.11381090   1      20  Si
    6.17486992    1.49987697    1.91830042   1      21  Si
    2.87987201    1.86912944    1.65252982   1      22  Si
    4.20082751    2.65201538    1.97768790   1      23  Si
    4.88363858    2.99642053    1.72654223   1      24  Si
    4.85305442    1.45916132    1.78941666   1      25  Si
    5.50333769    1.92360145    1.84003773   1      26  Si
    2.84020324    2.62456049    1.96564487   1      27  Si
    3.51993769    3.02458334    1.79607940   1      28  Si
    6.87416449    0.35879699    1.67929662   1      29  Si
    5.50097573    2.66413232    2.13216498   1      30  Si
    2.17811869    3.00719054    1.67739147   1      31  Si
    5.51376742    0.37130787    1.83795801   1      32  Si
    6.21306623    0.70859058    1.97497724   1      33  Si
    3.50039467    1.49056847    2.04818399   1      34  Si
    4.16613358    1.87769242    1.79883401   1      35  Si
    3.54752912    0.75769596    1.70355490   1      36  Si
    2.21704837    3.82608654    1.73107305   1      37  Si
    2.84915439    4.20025003    2.06040923   1      38  Si
    4.19157356    4.94662652    1.77536368   1      39  Si
    0.86007921    5.35376238    1.91926606   1      40  Si
    2.19373016    6.11219099    2.08263478   1      41  Si
    2.85427485    6.47421206    1.79047319   1      42  Si
    2.84891427    4.94221432    1.74187545   1      43  Si
    3.51921854    5.39019993    1.77984793   1      44  Si
    0.84975223    6.13569185    1.95401550   1      45  Si
    1.54677658    6.46958419    1.76575551   1      46  Si
    4.84224841    3.80264210    1.75174311   1      47  Si
    3.53329360    6.14096317    2.05942443   1      48  Si
    0.14162705    6.45857496    1.77067818   1      49  Si
    3.52017721    3.83300842    1.80046765   1      50  Si
    4.20141812    4.18851456    2.03274415   1      51  Si
    1.52824441    4.93713413    1.82226172   1      52  Si
    2.18176477    5.39530460    1.71193157   1      53  Si
    1.53079991    4.15300354    1.99458092   1      54  Si
    0.58324864    0.16767538    0.84539423   3      55  Sn
    0.55113349    1.23976012    0.86670543   3      56  Sn
    1.73977760   -1.02985552    0.98691098   3      57  Sn
    1.63495295    0.25839172    0.85275453   3      58  Sn
    3.54150019   -1.23696373    0.90437722   3      59  Sn
    2.68353386   -0.59019655    0.89165149   3      60  Sn
    5.44783271   -2.11075668    0.91095109   3      61  Sn
    4.29961415   -2.13224691    0.86750664   3      62  Sn
    0.21359093    2.29337023    0.92948181   3      63  Sn
   -0.56699539    3.04201539    0.87737750   3      64  Sn
    1.82387999    1.28719469    0.85932976   3      65  Sn
    1.25251159    2.22518074    0.92171119   3      66  Sn
    3.65042773   -0.08320983    0.87361717   3      67  Sn
    2.70153460    0.53828890    0.87518998   3      68  Sn
    4.56862153   -1.00037515    0.98657500   3      69  Sn
    4.68487742    0.38069688    0.89015602   3      70  Sn
    0.59291516    3.39141624    0.88176522   3      71  Sn
   -0.22561367    4.10694507    0.93242315   3      72  Sn
    2.39002321    2.34701406    0.91905349   3      73  Sn
    1.66352219    3.20668330    0.87691994   3      74  Sn
    3.39785156    1.41284894    0.96037859   3      75  Sn
    3.29321018    2.87097517    0.89074650   3      76  Sn
    5.00880432    1.40245291    0.88465140   3      77  Sn
    4.12851516    2.22295624    0.91464241   3      78  Sn
    0.26414695    5.02840648    0.98050743   3      79  Sn
    0.24783961    6.06898888    0.92284773   3      80  Sn
    2.05875773    4.20615448    0.88081051   3      81  Sn
    1.30632474    4.91119447    0.90772829   3      82  Sn
    3.65255881    3.87468482    0.89029094   3      83  Sn
    2.98870361    4.68646810    0.87543344   3      84  Sn
    5.17761250    2.52147704    0.96469697   3      85  Sn
    4.72244380    3.83204183    0.84328365   3      86  Sn
   -0.02812099   -0.01063604    0.01453165   3      87  Sn
    1.02401378   -0.01659899   -0.03345650   2      88  Ag
    0.50177086    0.85134774   -0.02548008   2      89  Ag
    1.47885833   -0.87828215   -0.01320445   3      90  Sn
    2.48806436   -0.88408120   -0.00927468   2      91  Ag
    2.02232330   -0.01546087    0.00431177   2      92  Ag
    2.97730305   -1.71595774   -0.00771332   3      93  Sn
    3.99509121   -1.73003425    0.01483962   2      94  Ag
    3.50011930   -0.86284973   -0.00745410   2      95  Ag
    4.50416759   -2.59675675   -0.07720112   3      96  Sn
    5.50159694   -2.60398807    0.01029274   2      97  Ag
    4.99663435   -1.72618192    0.01232727   2      98  Ag
   -0.01826807    1.74490816   -0.02997895   3      99  Sn
    0.99113380    1.71923741    0.02605330   2     100  Ag
    0.50531045    2.59858327   -0.01111917   2     101  Ag
    1.49421159    0.86484796   -0.05634536   3     102  Sn
    2.49560800    0.88240383   -0.01689671   2     103  Ag
    2.00543998    1.74285785    0.01117603   2     104  Ag
    3.00061428   -0.00368679   -0.03754730   3     105  Sn
    4.02194442   -0.01280321   -0.00162504   2     106  Ag
    3.50023628    0.83740613    0.01644108   2     107  Ag
    4.50051070   -0.86638215   -0.03744427   3     108  Sn
    5.49757875   -0.86951555   -0.00055687   2     109  Ag
    5.00111975    0.00102035   -0.01653259   2     110  Ag
   -0.00462060    3.46598747   -0.03945015   3     111  Sn
    0.99989969    3.46460008   -0.00552088   2     112  Ag
    0.50110644    4.32875253    0.03429120   2     113  Ag
    1.50076607    2.59953271   -0.04893972   3     114  Sn
    2.49910195    2.60089067   -0.00913042   2     115  Ag
    2.02390214    3.45552520    0.00921028   2     116  Ag
    2.99784365    1.73279929    0.00074664   3     117  Sn
    3.99602729    1.71508997   -0.00232816   2     118  Ag
    3.50078932    2.57344532   -0.02916521   2     119  Ag
    4.47400109    0.87949696   -0.00851215   3     120  Sn
    5.49829778    0.86340896   -0.01990402   2     121  Ag
    4.99980615    1.73664660   -0.00292864   2     122  Ag
   -0.00368551    5.19575663   -0.02300113   3     123  Sn
    0.99693314    5.19690892   -0.00687421   2     124  Ag
    0.50234445    6.06333745   -0.00224224   2     125  Ag
    1.47667847    4.31423070   -0.03270210   3     126  Sn
    2.49945740    4.32677051   -0.02731028   2     127  Ag
    1.99819864    5.18872710    0.02523531   2     128  Ag
    2.99956190    3.46721100    0.01225234   3     129  Sn
    3.99918979    3.43550529    0.00721875   2     130  Ag
    3.52310161    4.32087676   -0.02513714   2     131  Ag
    4.50486523    2.59825432   -0.01418202   3     132  Sn
    5.50189882    2.59168773    0.00456704   2     133  Ag
    4.99989226    3.43849320    0.01827925   2     134  Ag
    0.50000000    0.28867513   -0.81649658   2     135  Ag
    1.50000000    0.28867514   -0.81649658   2     136  Ag
    1.00000000    1.15470054   -0.81649658   2     137  Ag
    2.00000000   -0.57735027   -0.81649658   2     138  Ag
    3.00000000   -0.57735027   -0.81649658   2     139  Ag
    2.50000000    0.28867513   -0.81649658   2     140  Ag
    3.50000000   -1.44337567   -0.81649658   2     141  Ag
    4.50000000   -1.44337567   -0.81649658   2     142  Ag
    4.00000000   -0.57735027   -0.81649658   2     143  Ag
    5.00000000   -2.30940108   -0.81649658   2     144  Ag
    6.00000000   -2.30940107   -0.81649658   2     145  Ag
    5.50000000   -1.44337567   -0.81649658   2     146  Ag
    0.50000000    2.02072594   -0.81649658   2     147  Ag
    1.50000000    2.02072594   -0.81649658   2     148  Ag
    1.00000000    2.88675134   -0.81649658   2     149  Ag
    2.00000000    1.15470054   -0.81649658   2     150  Ag
    3.00000000    1.15470054   -0.81649658   2     151  Ag
    2.50000000    2.02072594   -0.81649658   2     152  Ag
    3.50000000    0.28867513   -0.81649658   2     153  Ag
    4.50000000    0.28867514   -0.81649658   2     154  Ag
    4.00000000    1.15470054   -0.81649658   2     155  Ag
    5.00000000   -0.57735027   -0.81649658   2     156  Ag
    6.00000000   -0.57735027   -0.81649658   2     157  Ag
    5.50000000    0.28867513   -0.81649658   2     158  Ag
    0.50000000    3.75277675   -0.81649658   2     159  Ag
    1.50000000    3.75277675   -0.81649658   2     160  Ag
    1.00000000    4.61880215   -0.81649658   2     161  Ag
    2.00000000    2.88675134   -0.81649658   2     162  Ag
    3.00000000    2.88675135   -0.81649658   2     163  Ag
    2.50000000    3.75277675   -0.81649658   2     164  Ag
    3.50000000    2.02072594   -0.81649658   2     165  Ag
    4.50000000    2.02072594   -0.81649658   2     166  Ag
    4.00000000    2.88675134   -0.81649658   2     167  Ag
    5.00000000    1.15470054   -0.81649658   2     168  Ag
    6.00000000    1.15470054   -0.81649658   2     169  Ag
    5.50000000    2.02072594   -0.81649658   2     170  Ag
    0.50000000    5.48482756   -0.81649658   2     171  Ag
    1.50000000    5.48482756   -0.81649658   2     172  Ag
    1.00000000    6.35085296   -0.81649658   2     173  Ag
    2.00000000    4.61880215   -0.81649658   2     174  Ag
    3.00000000    4.61880216   -0.81649658   2     175  Ag
    2.50000000    5.48482756   -0.81649658   2     176  Ag
    3.50000000    3.75277675   -0.81649658   2     177  Ag
    4.50000000    3.75277675   -0.81649658   2     178  Ag
    4.00000000    4.61880215   -0.81649658   2     179  Ag
    5.00000000    2.88675134   -0.81649658   2     180  Ag
    6.00000000    2.88675135   -0.81649658   2     181  Ag
    5.50000000    3.75277675   -0.81649658   2     182  Ag
    0.00000000    0.57735027   -1.63299316   2     183  Ag
    1.00000000    0.57735027   -1.63299316   2     184  Ag
    0.50000000    1.44337567   -1.63299316   2     185  Ag
    1.50000000   -0.28867514   -1.63299316   2     186  Ag
    2.50000000   -0.28867513   -1.63299316   2     187  Ag
    2.00000000    0.57735027   -1.63299316   2     188  Ag
    3.00000000   -1.15470054   -1.63299316   2     189  Ag
    4.00000000   -1.15470054   -1.63299316   2     190  Ag
    3.50000000   -0.28867513   -1.63299316   2     191  Ag
    4.50000000   -2.02072594   -1.63299316   2     192  Ag
    5.50000000   -2.02072594   -1.63299316   2     193  Ag
    5.00000000   -1.15470054   -1.63299316   2     194  Ag
    0.00000000    2.30940107   -1.63299316   2     195  Ag
    1.00000000    2.30940108   -1.63299316   2     196  Ag
    0.50000000    3.17542648   -1.63299316   2     197  Ag
    1.50000000    1.44337567   -1.63299316   2     198  Ag
    2.50000000    1.44337567   -1.63299316   2     199  Ag
    2.00000000    2.30940108   -1.63299316   2     200  Ag
    3.00000000    0.57735027   -1.63299316   2     201  Ag
    4.00000000    0.57735027   -1.63299316   2     202  Ag
    3.50000000    1.44337567   -1.63299316   2     203  Ag
    4.50000000   -0.28867514   -1.63299316   2     204  Ag
    5.50000000   -0.28867513   -1.63299316   2     205  Ag
    5.00000000    0.57735027   -1.63299316   2     206  Ag
    0.00000000    4.04145188   -1.63299316   2     207  Ag
    1.00000000    4.04145189   -1.63299316   2     208  Ag
    0.50000000    4.90747729   -1.63299316   2     209  Ag
    1.50000000    3.17542648   -1.63299316   2     210  Ag
    2.50000000    3.17542648   -1.63299316   2     211  Ag
    2.00000000    4.04145189   -1.63299316   2     212  Ag
    3.00000000    2.30940107   -1.63299316   2     213  Ag
    4.00000000    2.30940108   -1.63299316   2     214  Ag
    3.50000000    3.17542648   -1.63299316   2     215  Ag
    4.50000000    1.44337567   -1.63299316   2     216  Ag
    5.50000000    1.44337567   -1.63299316   2     217  Ag
    5.00000000    2.30940108   -1.63299316   2     218  Ag
    0.00000000    5.77350269   -1.63299316   2     219  Ag
    1.00000000    5.77350269   -1.63299316   2     220  Ag
    0.50000000    6.63952810   -1.63299316   2     221  Ag
    1.50000000    4.90747729   -1.63299316   2     222  Ag
    2.50000000    4.90747729   -1.63299316   2     223  Ag
    2.00000000    5.77350269   -1.63299316   2     224  Ag
    3.00000000    4.04145188   -1.63299316   2     225  Ag
    4.00000000    4.04145189   -1.63299316   2     226  Ag
    3.50000000    4.90747729   -1.63299316   2     227  Ag
    4.50000000    3.17542648   -1.63299316   2     228  Ag
    5.50000000    3.17542648   -1.63299316   2     229  Ag
    5.00000000    4.04145189   -1.63299316   2     230  Ag

superc: Internal auxiliary supercell:     3 x     3 x     1  =       9
superc: Number of atoms, orbitals, and projectors:   2070  35982  37260

outcell: Unit cell vectors (Ang):
       17.652000  -10.191387    0.000000
        0.000000   20.382774    0.000000
        0.000000    0.000000   29.420000

outcell: Cell vector modules (Ang)   :   20.382774   20.382774   29.420000
outcell: Cell angles (23,13,12) (deg):     90.0000     90.0000    120.0000
outcell: Cell volume (Ang**3)        :  10585.2196
<dSpData1D:S at geom step 0
  <sparsity:sparsity for geom step 0
    nrows_g=3998 nrows=264 sparsity=.0091 nnzs=145600, refcount: 7>
  <dData1D:(new from dSpData1D) n=145600, refcount: 1>
refcount: 1>
new_DM -- step:     1
Initializing Density Matrix...
 
Attempting to read DM from file... Succeeded...
DM from file:
<dSpData2D:IO-DM: Sn-Si-Ag.DM
  <sparsity:IO-DM: Sn-Si-Ag.DM
    nrows_g=3998 nrows=264 sparsity=.0091 nnzs=145600, refcount: 1>
  <dData2D:(new from dSpData2D) n=145600 m=1, refcount: 1>
refcount: 1>
DM to be used:
<dSpData2D:Re-structured SpM
  <sparsity:sparsity for geom step 0
    nrows_g=3998 nrows=264 sparsity=.0091 nnzs=145600, refcount: 8>
  <dData2D:(new in restruct) n=145600 m=1, refcount: 1>
refcount: 1>
No. of atoms with KB's overlaping orbs in proc 0. Max # of overlaps:     252     247

InitMesh: MESH = 240 x 240 x 384 = 22118400
InitMesh: Mesh cutoff (required, used) =   450.000   470.846 Ry
New grid distribution [1]: sub = 2
New grid distribution [2]: sub = 2
New grid distribution [3]: sub = 2
Setting up quadratic distribution...

stepf: Fermi-Dirac step function

siesta: Program's energy decomposition (eV):
siesta: Ebs     =    -94659.806100
siesta: Eions   =    831007.213855
siesta: Ena     =     73737.122088
siesta: Ekin    =    248377.642548
siesta: Enl     =    -34979.046474
siesta: Eso     =         0.000000
siesta: Edftu   =         0.000000
siesta: DEna    =      6633.640721
siesta: DUscf   =       259.027918
siesta: DUext   =         0.000000
siesta: Ex      =   -105372.111307
siesta: Ec      =     -6314.443256
siesta: Exc     =   -111686.554563
siesta: eta*DQ  =         0.000000
siesta: Emadel  =         0.000000
siesta: Emeta   =         0.000000
siesta: Emolmec =       -30.256496
siesta: Ekinion =         0.000000
siesta: Eharris =   -648695.638104
siesta: Etot    =   -648695.638113
siesta: FreeEng =   -648695.798084

        iscf     Eharris(eV)        E_KS(eV)     FreeEng(eV)     dDmax    Ef(eV) dHmax(eV)
   scf:    1  -648695.638104  -648695.638113  -648695.798084  0.000064 -3.119124  0.002308
timer: Routine,Calls,Time,% = IterSCF        1     132.978  86.39
   scf:    2  -648695.638115  -648695.638116  -648695.798085  0.000037 -3.119117  0.001485
   scf:    3  -648695.638118  -648695.638117  -648695.798086  0.000012 -3.119116  0.000718
   scf:    4  -648695.638118  -648695.638117  -648695.798087  0.000012 -3.119115  0.000465
   scf:    5  -648695.638118  -648695.638118  -648695.798087  0.000007 -3.119113  0.000287
   scf:    6  -648695.638118  -648695.638118  -648695.798087  0.000003 -3.119112  0.000220
   scf:    7  -648695.638118  -648695.638118  -648695.798087  0.000002 -3.119111  0.000157
   scf:    8  -648695.638118  -648695.638118  -648695.798087  0.000002 -3.119111  0.000111
   scf:    9  -648695.638119  -648695.638118  -648695.798087  0.000001 -3.119110  0.000079
   scf:   10  -648695.638119  -648695.638118  -648695.798087  0.000001 -3.119110  0.000057

SCF Convergence by DM+H criterion
max |DM_out - DM_in|         :     0.0000008966
max |H_out - H_in|      (eV) :     0.0000570824
SCF cycle converged after 10 iterations

Using DM_out to compute the final energy and forces
 E_bs from EDM:  -94659.9987725050     
No. of atoms with KB's overlaping orbs in proc 0. Max # of overlaps:     252     247

MM-Stress (kbar):        3.63        3.46        5.08        0.01       -0.38       -0.06

siesta: E_KS(eV) =          -648695.6381

siesta: E_KS - E_eggbox =   -648695.6381

siesta: Atomic forces (eV/Ang):
     1   -0.005347   -0.022009    0.001511
     2    0.007575    0.004926    0.006674
     3    0.003907    0.001158    0.000683
     4   -0.001221    0.016136    0.004984
     5   -0.010539   -0.017187   -0.000849
     6   -0.008937    0.043931   -0.013444
     7   -0.022113   -0.011529    0.023034
     8    0.004368    0.035542   -0.002591
     9   -0.004874   -0.017952   -0.002375
    10   -0.000363    0.026068   -0.010089
    11    0.000528    0.011774    0.005085
    12    0.014473   -0.022449    0.001712
    13    0.002821    0.017019    0.001569
    14   -0.007059   -0.000758   -0.002391
    15    0.001731    0.001363    0.000658
    16   -0.013045   -0.044398    0.026183
    17    0.023249    0.023526    0.017458
    18    0.011961    0.046748    0.006473
    19    0.005190   -0.014966   -0.007627
    20   -0.012470    0.012507    0.006760
    21   -0.023507   -0.021689    0.004653
    22   -0.008622   -0.000328    0.005434
    23    0.014181   -0.000193   -0.003458
    24    0.000910   -0.001782   -0.006493
    25   -0.003211   -0.002569   -0.004370
    26   -0.008928    0.012280   -0.007013
    27    0.006528    0.007105   -0.001723
    28   -0.019562    0.011076   -0.005379
    29   -0.006244   -0.030030   -0.009791
    30   -0.009245    0.004318    0.010252
    31   -0.013912    0.005954   -0.004741
    32    0.008513   -0.017589   -0.007024
    33   -0.014304    0.029425   -0.006910
    34    0.000519   -0.003381    0.014919
    35   -0.002468    0.004149   -0.002840
    36   -0.007280    0.016826    0.011551
    37   -0.005222   -0.003497    0.001068
    38   -0.001653    0.014605    0.006175
    39    0.003107   -0.009434    0.013256
    40    0.005743    0.052513   -0.000807
    41   -0.008030   -0.010831   -0.005006
    42    0.002049    0.000475   -0.003942
    43    0.010424   -0.013720    0.001595
    44   -0.009494    0.007251    0.003080
    45   -0.003209   -0.025413    0.011761
    46   -0.000928   -0.000936   -0.007986
    47   -0.009590    0.004966    0.007415
    48   -0.013711   -0.003675    0.005026
    49   -0.000110    0.022793   -0.003309
    50    0.001940   -0.011977   -0.007824
    51    0.012646    0.002062    0.000011
    52    0.003380   -0.029039    0.001079
    53   -0.001217    0.024733    0.000873
    54    0.012498    0.027133    0.005886
    55    0.007189   -0.003543   -0.016165
    56    0.021452    0.004800    0.006506
    57    0.004727   -0.011321   -0.008285
    58    0.005337    0.005575   -0.002201
    59   -0.013654    0.002411    0.002197
    60   -0.015483   -0.000486    0.018771
    61    0.012715    0.016146    0.018985
    62    0.007883   -0.003350   -0.016517
    63   -0.012158    0.002667   -0.008946
    64   -0.010608   -0.003918    0.010317
    65   -0.013406   -0.010557    0.005600
    66   -0.012992   -0.005134   -0.008052
    67    0.000413   -0.015593   -0.014240
    68    0.007464    0.001582   -0.000524
    69   -0.000935   -0.003723   -0.002015
    70   -0.007199    0.003049   -0.003632
    71    0.002981   -0.002114    0.014291
    72    0.003375   -0.004869   -0.000043
    73   -0.002280    0.010480    0.006117
    74   -0.001309   -0.001664   -0.002985
    75    0.009476    0.021771    0.027225
    76    0.001070    0.005585    0.000795
    77   -0.000643   -0.003300    0.000320
    78    0.014038    0.018431    0.011851
    79   -0.012453   -0.006307    0.003443
    80    0.023605   -0.004957   -0.001255
    81    0.000338   -0.000368   -0.009466
    82   -0.006370   -0.012639    0.001319
    83    0.007942   -0.000532   -0.002088
    84    0.025446   -0.010587   -0.001694
    85    0.030792   -0.014291    0.019668
    86   -0.000676    0.020028   -0.024325
    87   -0.003918    0.011515    0.000747
    88   -0.008323    0.011056    0.006292
    89   -0.004214   -0.001003    0.002484
    90    0.009376   -0.000779   -0.001012
    91   -0.007233    0.001342   -0.003087
    92   -0.001701   -0.001463   -0.008143
    93    0.009710   -0.001163   -0.006593
    94   -0.004077    0.002122    0.001282
    95    0.000789   -0.006752   -0.002959
    96    0.000224    0.000468    0.025797
    97   -0.003294   -0.005902    0.001517
    98   -0.005993   -0.009166    0.000089
    99    0.000660   -0.008789    0.001014
   100   -0.010715    0.006618    0.003177
   101   -0.003399   -0.008652    0.003600
   102    0.006049   -0.007710    0.004416
   103   -0.009870    0.006335   -0.004328
   104    0.001256   -0.006490    0.005375
   105   -0.004170    0.000124   -0.001149
   106   -0.001800   -0.002887   -0.005437
   107    0.006867    0.016776   -0.000661
   108    0.009141   -0.008807   -0.011551
   109   -0.006705    0.001741    0.003898
   110   -0.001319    0.012730    0.005914
   111    0.000697   -0.004855   -0.005805
   112   -0.004078    0.000729    0.001439
   113   -0.003304    0.003409    0.004338
   114    0.002337    0.000705   -0.002650
   115   -0.001028    0.006093    0.002050
   116    0.006276   -0.002752    0.006689
   117    0.006302    0.004666   -0.004129
   118    0.002639    0.014085   -0.001755
   119    0.006589   -0.002735    0.002929
   120    0.006647   -0.006339    0.004059
   121   -0.001934    0.006044    0.002862
   122    0.013439   -0.009430    0.007274
   123   -0.006710   -0.002104   -0.004782
   124   -0.002350    0.003258   -0.002638
   125    0.001404    0.002014    0.000884
   126    0.011825   -0.003672   -0.002346
   127   -0.000891   -0.000205    0.004938
   128    0.010150    0.000342    0.003227
   129   -0.005067    0.003277   -0.016398
   130   -0.009167   -0.000483    0.001597
   131    0.000753   -0.001779   -0.000725
   132   -0.003114    0.006546   -0.002790
   133   -0.012617    0.010241    0.004197
   134    0.024131    0.003039    0.006633
   135    0.042855   -0.014132   -0.340214
   136    0.157627   -0.260830   -0.631463
   137   -0.226660    0.260721   -0.543453
   138    0.107704    0.061907   -0.322429
   139   -0.018610   -0.250654   -0.507169
   140   -0.228059    0.131597   -0.450955
   141    0.172398    0.062331   -0.284106
   142   -0.001770   -0.270538   -0.324798
   143   -0.179873    0.100031   -0.491333
   144    0.387348    0.224480   -0.535879
   145   -0.041544   -0.123125   -0.380861
   146   -0.232017    0.085619   -0.468211
   147    0.213613   -0.013681   -0.308650
   148   -0.047266   -0.335250   -0.340065
   149   -0.198437    0.141311   -0.519908
   150    0.223399    0.212461   -0.519704
   151    0.069341   -0.130063   -0.287761
   152   -0.135740    0.048914   -0.340025
   153    0.259016    0.112459   -0.445215
   154   -0.043488   -0.123965   -0.396589
   155   -0.223595    0.063874   -0.421372
   156    0.212700    0.073865   -0.475014
   157    0.013379   -0.258747   -0.439454
   158   -0.179405    0.090795   -0.594040
   159    0.222974    0.172706   -0.416424
   160    0.079868   -0.245500   -0.403231
   161   -0.238972    0.112517   -0.443920
   162    0.226702    0.168601   -0.545888
   163   -0.023096   -0.117242   -0.394404
   164   -0.147935    0.003465   -0.431926
   165    0.126571   -0.043249   -0.483170
   166    0.001254   -0.167331   -0.318493
   167   -0.115985    0.110048   -0.446803
   168    0.103297    0.089286   -0.349651
   169    0.088921   -0.215647   -0.316773
   170   -0.177474    0.096669   -0.355282
   171    0.123568    0.098604   -0.404893
   172    0.066159   -0.194932   -0.329466
   173   -0.151931    0.032542   -0.547325
   174    0.074581    0.137403   -0.345047
   175    0.022330   -0.109910   -0.373961
   176   -0.197484    0.018396   -0.440137
   177    0.123615   -0.064945   -0.378631
   178    0.052033   -0.443455   -0.486422
   179   -0.297005    0.283909   -0.712677
   180    0.180069    0.120112   -0.396310
   181    0.024085   -0.140811   -0.290874
   182   -0.174219    0.099939   -0.210773
   183    0.005586   -0.035873    0.447215
   184    0.025874    0.008678    0.446336
   185   -0.028165    0.026980    0.437154
   186   -0.000499   -0.027076    0.457695
   187    0.047133   -0.006207    0.461948
   188   -0.039941    0.055175    0.440029
   189   -0.015195   -0.012110    0.475332
   190    0.020892    0.022721    0.447676
   191   -0.038867    0.011564    0.433958
   192    0.016342   -0.043648    0.441384
   193    0.021817    0.003196    0.484654
   194   -0.043779   -0.008010    0.460655
   195    0.008570   -0.033328    0.452538
   196    0.029389    0.009434    0.463181
   197   -0.030462    0.028712    0.441118
   198    0.010149   -0.037798    0.437875
   199    0.022788   -0.001032    0.421153
   200   -0.025731    0.016567    0.457995
   201    0.010509   -0.024466    0.467335
   202    0.029345    0.008824    0.449260
   203   -0.030183    0.011937    0.451496
   204   -0.025235   -0.024410    0.432046
   205    0.046372    0.035370    0.449220
   206   -0.004045    0.032562    0.440176
   207   -0.006511   -0.042488    0.431799
   208    0.014901    0.005586    0.437355
   209   -0.035559    0.031140    0.433094
   210   -0.002226   -0.041905    0.421658
   211    0.041751    0.011984    0.446353
   212    0.001921    0.028509    0.433869
   213    0.017983   -0.008652    0.441186
   214    0.009468    0.018761    0.449648
   215   -0.035567    0.013793    0.454322
   216    0.001885   -0.034805    0.460201
   217    0.013168    0.016300    0.428792
   218   -0.019153    0.015648    0.438486
   219   -0.003532   -0.043009    0.474045
   220    0.023293    0.000590    0.462769
   221   -0.024318    0.022367    0.456859
   222    0.018352   -0.022641    0.449215
   223    0.006835    0.009769    0.447188
   224   -0.027149   -0.000173    0.430967
   225    0.001426   -0.027015    0.419387
   226    0.010926    0.027464    0.456085
   227   -0.009067   -0.008120    0.451032
   228    0.019500   -0.057261    0.441215
   229    0.004605   -0.010238    0.459308
   230   -0.032163    0.033438    0.441323
----------------------------------------
   Tot    0.086442   -0.176981    1.406023
----------------------------------------
   Max    0.712677
   Res    0.175762    sqrt( Sum f_i^2 / 3N )
----------------------------------------
   Max    0.052513    constrained

Stress tensor Voigt[x,y,z,yz,xz,xy] (kbar):       13.66       13.12        7.38       -0.26        0.06       -1.05
(Free)E + p*V (eV/cell)  -648771.0307
Target enthalpy (eV/cell)  -648695.7981
 
mulliken: Atomic and Orbital Populations:

Species: Si                  
Atom  Qatom  Qorb
               3s      3s      3py     3pz     3px     3py     3pz     3px     
               3Pdxy   3Pdyz   3Pdz2   3Pdxz   3Pdx2-y2
   1  3.921   0.582   0.598   0.396   0.587   0.404   0.361   0.214   0.375
              0.092   0.067   0.073   0.078   0.093
   2  4.104   0.779   0.532   0.607   0.853   0.612   0.202   0.034   0.206
              0.072   0.047   0.032   0.050   0.076
   3  3.910   0.589   0.606   0.376   0.604   0.402   0.395   0.184   0.349
              0.102   0.079   0.069   0.066   0.088
   4  3.860   0.630   0.584   0.340   0.562   0.401   0.413   0.176   0.355
              0.100   0.102   0.050   0.072   0.076
   5  4.059   0.728   0.551   0.581   0.790   0.578   0.234   0.046   0.252
              0.079   0.046   0.036   0.053   0.085
   6  3.879   0.644   0.581   0.412   0.559   0.373   0.362   0.164   0.402
              0.079   0.066   0.056   0.092   0.088
   7  3.901   0.590   0.602   0.369   0.621   0.421   0.404   0.165   0.334
              0.104   0.078   0.068   0.060   0.084
   8  3.937   0.610   0.595   0.383   0.660   0.440   0.397   0.131   0.326
              0.109   0.085   0.064   0.054   0.084
   9  4.078   0.775   0.548   0.612   0.801   0.605   0.201   0.023   0.223
              0.069   0.048   0.040   0.055   0.077
  10  3.877   0.590   0.600   0.401   0.539   0.363   0.363   0.240   0.404
              0.077   0.056   0.082   0.073   0.088
  11  3.936   0.585   0.602   0.406   0.644   0.406   0.371   0.155   0.371
              0.096   0.062   0.077   0.071   0.091
  12  4.074   0.756   0.550   0.601   0.827   0.595   0.197   0.033   0.226
              0.073   0.045   0.035   0.054   0.082
  13  3.854   0.626   0.586   0.382   0.514   0.352   0.360   0.227   0.400
              0.081   0.073   0.056   0.105   0.090
  14  3.899   0.608   0.599   0.396   0.543   0.363   0.362   0.223   0.414
              0.080   0.061   0.082   0.080   0.089
  15  4.086   0.758   0.541   0.611   0.840   0.588   0.207   0.034   0.225
              0.076   0.048   0.033   0.048   0.076
  16  4.075   0.730   0.558   0.567   0.814   0.584   0.245   0.043   0.228
              0.084   0.053   0.049   0.043   0.077
  17  3.881   0.598   0.600   0.358   0.595   0.405   0.405   0.165   0.365
              0.096   0.094   0.062   0.059   0.080
  18  3.916   0.639   0.565   0.390   0.614   0.408   0.366   0.196   0.353
              0.096   0.089   0.050   0.059   0.090
  19  3.909   0.595   0.600   0.389   0.578   0.379   0.370   0.192   0.386
              0.097   0.062   0.075   0.094   0.093
  20  4.118   0.782   0.538   0.616   0.866   0.613   0.195   0.036   0.194
              0.071   0.051   0.035   0.051   0.072
  21  3.983   0.582   0.591   0.406   0.727   0.418   0.371   0.149   0.352
              0.102   0.061   0.070   0.057   0.097
  22  3.875   0.648   0.569   0.366   0.483   0.363   0.379   0.262   0.371
              0.095   0.102   0.055   0.100   0.081
  23  4.031   0.706   0.556   0.559   0.778   0.542   0.257   0.053   0.275
              0.086   0.046   0.036   0.050   0.087
  24  3.886   0.626   0.585   0.393   0.520   0.407   0.356   0.250   0.372
              0.075   0.078   0.058   0.077   0.089
  25  3.916   0.575   0.606   0.363   0.585   0.409   0.419   0.210   0.345
              0.104   0.074   0.087   0.058   0.082
  26  3.895   0.659   0.565   0.369   0.638   0.436   0.410   0.129   0.326
              0.107   0.079   0.045   0.055   0.077
  27  4.049   0.784   0.542   0.597   0.785   0.572   0.210   0.025   0.237
              0.080   0.049   0.041   0.053   0.076
  28  3.915   0.607   0.589   0.405   0.612   0.397   0.369   0.174   0.380
              0.089   0.060   0.068   0.074   0.090
  29  3.898   0.657   0.572   0.405   0.515   0.366   0.343   0.263   0.387
              0.086   0.069   0.059   0.090   0.086
  30  4.107   0.781   0.544   0.629   0.819   0.626   0.185   0.036   0.203
              0.066   0.054   0.037   0.057   0.070
  31  3.870   0.637   0.577   0.360   0.516   0.379   0.373   0.236   0.384
              0.082   0.073   0.061   0.099   0.093
  32  3.886   0.607   0.594   0.403   0.593   0.350   0.376   0.163   0.416
              0.084   0.061   0.060   0.084   0.094
  33  3.994   0.679   0.570   0.530   0.716   0.520   0.279   0.065   0.308
              0.084   0.047   0.040   0.058   0.097
  34  4.103   0.806   0.544   0.613   0.820   0.641   0.197   0.015   0.177
              0.070   0.054   0.049   0.050   0.067
  35  3.897   0.612   0.592   0.370   0.580   0.403   0.391   0.182   0.376
              0.089   0.086   0.064   0.063   0.088
  36  3.889   0.638   0.572   0.374   0.617   0.426   0.380   0.165   0.338
              0.094   0.094   0.045   0.053   0.092
  37  3.902   0.636   0.583   0.398   0.544   0.414   0.356   0.210   0.380
              0.079   0.069   0.066   0.081   0.086
  38  4.109   0.785   0.530   0.616   0.861   0.599   0.189   0.037   0.216
              0.073   0.048   0.032   0.050   0.074
  39  3.929   0.580   0.602   0.370   0.640   0.427   0.408   0.171   0.342
[...]
    5.00000000   -0.57735027   -0.81649658   2     156  Ag
    6.00000000   -0.57735027   -0.81649658   2     157  Ag
    5.50000000    0.28867513   -0.81649658   2     158  Ag
    0.50000000    3.75277675   -0.81649658   2     159  Ag
    1.50000000    3.75277675   -0.81649658   2     160  Ag
    1.00000000    4.61880215   -0.81649658   2     161  Ag
    2.00000000    2.88675134   -0.81649658   2     162  Ag
    3.00000000    2.88675135   -0.81649658   2     163  Ag
    2.50000000    3.75277675   -0.81649658   2     164  Ag
    3.50000000    2.02072594   -0.81649658   2     165  Ag
    4.50000000    2.02072594   -0.81649658   2     166  Ag
    4.00000000    2.88675134   -0.81649658   2     167  Ag
    5.00000000    1.15470054   -0.81649658   2     168  Ag
    6.00000000    1.15470054   -0.81649658   2     169  Ag
    5.50000000    2.02072594   -0.81649658   2     170  Ag
    0.50000000    5.48482756   -0.81649658   2     171  Ag
    1.50000000    5.48482756   -0.81649658   2     172  Ag
    1.00000000    6.35085296   -0.81649658   2     173  Ag
    2.00000000    4.61880215   -0.81649658   2     174  Ag
    3.00000000    4.61880216   -0.81649658   2     175  Ag
    2.50000000    5.48482756   -0.81649658   2     176  Ag
    3.50000000    3.75277675   -0.81649658   2     177  Ag
    4.50000000    3.75277675   -0.81649658   2     178  Ag
    4.00000000    4.61880215   -0.81649658   2     179  Ag
    5.00000000    2.88675134   -0.81649658   2     180  Ag
    6.00000000    2.88675135   -0.81649658   2     181  Ag
    5.50000000    3.75277675   -0.81649658   2     182  Ag
    0.00000000    0.57735027   -1.63299316   2     183  Ag
    1.00000000    0.57735027   -1.63299316   2     184  Ag
    0.50000000    1.44337567   -1.63299316   2     185  Ag
    1.50000000   -0.28867514   -1.63299316   2     186  Ag
    2.50000000   -0.28867513   -1.63299316   2     187  Ag
    2.00000000    0.57735027   -1.63299316   2     188  Ag
    3.00000000   -1.15470054   -1.63299316   2     189  Ag
    4.00000000   -1.15470054   -1.63299316   2     190  Ag
    3.50000000   -0.28867513   -1.63299316   2     191  Ag
    4.50000000   -2.02072594   -1.63299316   2     192  Ag
    5.50000000   -2.02072594   -1.63299316   2     193  Ag
    5.00000000   -1.15470054   -1.63299316   2     194  Ag
    0.00000000    2.30940107   -1.63299316   2     195  Ag
    1.00000000    2.30940108   -1.63299316   2     196  Ag
    0.50000000    3.17542648   -1.63299316   2     197  Ag
    1.50000000    1.44337567   -1.63299316   2     198  Ag
    2.50000000    1.44337567   -1.63299316   2     199  Ag
    2.00000000    2.30940108   -1.63299316   2     200  Ag
    3.00000000    0.57735027   -1.63299316   2     201  Ag
    4.00000000    0.57735027   -1.63299316   2     202  Ag
    3.50000000    1.44337567   -1.63299316   2     203  Ag
    4.50000000   -0.28867514   -1.63299316   2     204  Ag
    5.50000000   -0.28867513   -1.63299316   2     205  Ag
    5.00000000    0.57735027   -1.63299316   2     206  Ag
    0.00000000    4.04145188   -1.63299316   2     207  Ag
    1.00000000    4.04145189   -1.63299316   2     208  Ag
    0.50000000    4.90747729   -1.63299316   2     209  Ag
    1.50000000    3.17542648   -1.63299316   2     210  Ag
    2.50000000    3.17542648   -1.63299316   2     211  Ag
    2.00000000    4.04145189   -1.63299316   2     212  Ag
    3.00000000    2.30940107   -1.63299316   2     213  Ag
    4.00000000    2.30940108   -1.63299316   2     214  Ag
    3.50000000    3.17542648   -1.63299316   2     215  Ag
    4.50000000    1.44337567   -1.63299316   2     216  Ag
    5.50000000    1.44337567   -1.63299316   2     217  Ag
    5.00000000    2.30940108   -1.63299316   2     218  Ag
    0.00000000    5.77350269   -1.63299316   2     219  Ag
    1.00000000    5.77350269   -1.63299316   2     220  Ag
    0.50000000    6.63952810   -1.63299316   2     221  Ag
    1.50000000    4.90747729   -1.63299316   2     222  Ag
    2.50000000    4.90747729   -1.63299316   2     223  Ag
    2.00000000    5.77350269   -1.63299316   2     224  Ag
    3.00000000    4.04145188   -1.63299316   2     225  Ag
    4.00000000    4.04145189   -1.63299316   2     226  Ag
    3.50000000    4.90747729   -1.63299316   2     227  Ag
    4.50000000    3.17542648   -1.63299316   2     228  Ag
    5.50000000    3.17542648   -1.63299316   2     229  Ag
    5.00000000    4.04145189   -1.63299316   2     230  Ag

coxmol: Writing XMOL coordinates into file Sn-Si-Ag.xyz                                                                                                                                                                                                                        

coceri: Writing CERIUS coordinates into file Sn-Si-Ag.xtl                                                                                                                                                                                                                        

siesta: PDOS info
siesta: E1 -- E2, sigma [eV], nhist:  -13.000 --    2.000    0.120 350
 
diag: Algorithm                                     = D&C
diag: Parallel over k                               =   F
diag: Use parallel 2D distribution                  =   T
diag: Parallel block-size                           = 24
diag: Parallel distribution                         =     4 x     4
diag: Used triangular part                          = Lower
diag: Absolute tolerance                            =  0.100E-15
diag: Orthogonalization factor                      =  0.100E-05
diag: Memory factor                                 =  1.0000

siesta: Program's energy decomposition (eV):
siesta: Ebs     =    -94660.006095
siesta: Eions   =    831007.213855
siesta: Ena     =     73737.129376
siesta: Ekin    =    248377.638118
siesta: Enl     =    -34979.054811
siesta: Eso     =         0.000000
siesta: Edftu   =         0.000000
siesta: DEna    =      6633.639691
siesta: DUscf   =       259.027906
siesta: DUext   =         0.000000
siesta: Ex      =   -105372.107729
siesta: Ec      =     -6314.441822
siesta: Exc     =   -111686.549552
siesta: eta*DQ  =         0.000000
siesta: Emadel  =         0.000000
siesta: Emeta   =         0.000000
siesta: Emolmec =       -30.256219
siesta: Ekinion =         0.000000
siesta: Eharris =   -648695.639346
siesta: Etot    =   -648695.639346
siesta: FreeEng =   -648695.799254

siesta: Final energy (eV):
siesta:  Band Struct. =  -94660.006095
siesta:       Kinetic =  248377.638118
siesta:       Hartree = 3025555.258439
siesta:       Edftu   =       0.000000
siesta:       Eso     =       0.000000
siesta:    Ext. field =       0.000000
siesta:         Exch. = -105372.107729
siesta:         Corr. =   -6314.441822
siesta:   Exch.-corr. = -111686.549552
siesta:  Ion-electron =-6307864.880806
siesta:       Ion-ion = 2496953.150673
siesta:       Ekinion =       0.000000
siesta:         Total = -648695.639346
siesta:         Fermi =      -3.119125

siesta: Atomic forces (eV/Ang):
siesta:      1   -0.001409   -0.004635    0.001078
siesta:      2    0.000904   -0.002826    0.006271
siesta:      3   -0.001827    0.003488    0.000596
siesta:      4    0.001504    0.000427    0.003343
siesta:      5   -0.005086    0.000305   -0.001950
siesta:      6   -0.004255    0.015779   -0.001882
siesta:      7   -0.007118    0.000208    0.020044
siesta:      8   -0.000986    0.013016   -0.006868
siesta:      9   -0.001613   -0.005393   -0.001993
siesta:     10   -0.002001    0.008085   -0.004861
siesta:     11    0.000699    0.007417    0.003978
siesta:     12    0.002339   -0.003617    0.001490
siesta:     13   -0.001420    0.004485    0.004260
siesta:     14   -0.003405    0.000255   -0.001982
siesta:     15   -0.001501    0.001041    0.000234
siesta:     16   -0.003205   -0.013543    0.028880
siesta:     17    0.004674    0.003571    0.017030
siesta:     18    0.007038    0.019146    0.002416
siesta:     19    0.000974   -0.002499   -0.006346
siesta:     20   -0.006113    0.004039    0.003771
siesta:     21   -0.009912    0.004360    0.002417
siesta:     22   -0.004262    0.000365    0.006147
siesta:     23    0.004026    0.003369   -0.004064
siesta:     24    0.002482    0.001979   -0.007286
siesta:     25   -0.003816    0.001147   -0.005248
siesta:     26   -0.008509    0.008183   -0.007071
siesta:     27   -0.001088    0.006520   -0.002376
siesta:     28   -0.006898    0.003626   -0.003576
siesta:     29   -0.002005   -0.002700   -0.001180
siesta:     30   -0.004728    0.007404    0.008845
siesta:     31   -0.008663    0.002502   -0.002845
siesta:     32    0.000307   -0.000727   -0.002218
siesta:     33   -0.007131    0.009756   -0.008662
siesta:     34   -0.000285    0.002277    0.014921
siesta:     35   -0.002561    0.001225   -0.001114
siesta:     36   -0.000928    0.009373    0.009775
siesta:     37   -0.002373    0.001974    0.001885
siesta:     38    0.000334    0.005010    0.005108
siesta:     39    0.001311   -0.000613    0.008788
siesta:     40   -0.002124    0.010906   -0.004224
siesta:     41   -0.005168   -0.001520   -0.002409
siesta:     42   -0.002050    0.002376   -0.001577
siesta:     43    0.003297   -0.003092   -0.001854
siesta:     44   -0.003815    0.000638    0.002377
siesta:     45   -0.003466    0.002309    0.010193
siesta:     46   -0.004185   -0.003968   -0.006851
siesta:     47    0.002399    0.007267   -0.000536
siesta:     48   -0.007723    0.000793    0.004082
siesta:     49   -0.002643    0.006569    0.000160
siesta:     50    0.001378   -0.001509   -0.003956
siesta:     51    0.004919   -0.001724    0.001110
siesta:     52    0.000543   -0.003434   -0.002150
siesta:     53   -0.000303    0.007216   -0.002051
siesta:     54    0.003218    0.008790    0.003850
siesta:     55    0.004617   -0.002073   -0.009189
siesta:     56    0.020135    0.003476    0.006993
siesta:     57    0.002561   -0.014113   -0.011558
siesta:     58    0.005752    0.003407   -0.001931
siesta:     59   -0.011496    0.002026    0.001812
siesta:     60   -0.017291   -0.001780    0.020546
siesta:     61    0.013193    0.013310    0.016419
siesta:     62    0.004027   -0.002478   -0.003885
siesta:     63   -0.008717   -0.001234    0.001117
siesta:     64   -0.010926   -0.003269    0.006366
siesta:     65   -0.014242   -0.003890    0.004468
siesta:     66   -0.007603   -0.004587   -0.003156
siesta:     67    0.000099   -0.002583    0.000769
siesta:     68    0.008206    0.001014   -0.004668
siesta:     69   -0.002242   -0.002438   -0.001196
siesta:     70   -0.006579    0.002683   -0.004144
siesta:     71    0.003207   -0.000084    0.008703
siesta:     72    0.003846   -0.006037   -0.000674
siesta:     73   -0.002014    0.009438    0.004638
siesta:     74   -0.001634   -0.001258   -0.001348
siesta:     75    0.008473    0.020949    0.026197
siesta:     76    0.002465    0.006746   -0.000080
siesta:     77    0.000097   -0.004130    0.000424
siesta:     78    0.014673    0.017807    0.007430
siesta:     79   -0.012142   -0.007022    0.004573
siesta:     80    0.019696   -0.005274   -0.001010
siesta:     81    0.001981    0.002999   -0.002697
siesta:     82   -0.006358   -0.012751   -0.000170
siesta:     83    0.007662   -0.000935   -0.001972
siesta:     84    0.023179   -0.011096   -0.004501
siesta:     85    0.028739   -0.012513    0.019819
siesta:     86    0.004570    0.017001   -0.017404
siesta:     87   -0.001482    0.006550    0.000832
siesta:     88   -0.005072    0.006425    0.003725
siesta:     89   -0.003602   -0.000278    0.004041
siesta:     90    0.004117   -0.000134   -0.002737
siesta:     91   -0.005713   -0.000413   -0.000572
siesta:     92    0.001661   -0.002044   -0.014175
siesta:     93    0.005251   -0.002083   -0.005751
siesta:     94   -0.003165    0.001330    0.000436
siesta:     95    0.000427   -0.003558   -0.000945
siesta:     96   -0.000987   -0.000028    0.015527
siesta:     97   -0.002783   -0.002377    0.001222
siesta:     98   -0.003977   -0.006867    0.000096
siesta:     99   -0.000392   -0.006644   -0.000181
siesta:    100   -0.007057    0.004594    0.000784
siesta:    101   -0.002342   -0.004163    0.001613
siesta:    102    0.003223   -0.004711    0.003951
siesta:    103   -0.007440    0.003726   -0.002285
siesta:    104   -0.002020   -0.007287    0.006044
siesta:    105   -0.002607    0.000997   -0.000101
siesta:    106   -0.001241   -0.002284   -0.003636
siesta:    107    0.005169    0.012334    0.000078
siesta:    108    0.006100   -0.004027   -0.007361
siesta:    109   -0.004411    0.000603    0.002902
siesta:    110   -0.001068    0.012107    0.006883
siesta:    111    0.000830   -0.002313   -0.003631
siesta:    112   -0.003276    0.000950    0.001599
siesta:    113   -0.001708    0.003325    0.002785
siesta:    114    0.001769   -0.001670   -0.003107
siesta:    115    0.000069    0.003907    0.001160
siesta:    116    0.003402   -0.001561    0.005210
siesta:    117    0.003689    0.002526   -0.001188
siesta:    118   -0.001695    0.019126    0.002341
siesta:    119    0.004246   -0.000680    0.002695
siesta:    120    0.003362   -0.002758    0.002691
siesta:    121   -0.000685    0.004567    0.002243
siesta:    122    0.008183   -0.005772    0.005057
siesta:    123   -0.003798    0.000924   -0.003875
siesta:    124   -0.001201    0.001507   -0.001152
siesta:    125    0.000678    0.001717   -0.000286
siesta:    126    0.006871   -0.003116   -0.001472
siesta:    127   -0.000404    0.000497    0.002951
siesta:    128    0.006821    0.000496    0.002163
siesta:    129    0.000652   -0.000008   -0.015307
siesta:    130   -0.005590   -0.001572    0.001504
siesta:    131    0.000588   -0.001031   -0.000702
siesta:    132   -0.001329    0.005153    0.000659
siesta:    133   -0.010657    0.005331    0.007491
siesta:    134    0.013488    0.000963    0.002952
siesta:    135    0.042886   -0.014138   -0.340329
siesta:    136    0.157133   -0.261010   -0.631527
siesta:    137   -0.226318    0.260620   -0.542124
siesta:    138    0.107668    0.061946   -0.323256
siesta:    139   -0.018485   -0.250674   -0.507073
siesta:    140   -0.227934    0.131783   -0.451267
siesta:    141    0.172546    0.062279   -0.284827
siesta:    142   -0.001892   -0.271188   -0.325773
siesta:    143   -0.179960    0.100062   -0.491677
siesta:    144    0.385901    0.223401   -0.533930
siesta:    145   -0.041654   -0.123249   -0.380904
siesta:    146   -0.231865    0.085754   -0.467400
siesta:    147    0.213393   -0.013614   -0.308770
siesta:    148   -0.047216   -0.335371   -0.339806
siesta:    149   -0.198671    0.141333   -0.519501
siesta:    150    0.222975    0.212672   -0.520145
siesta:    151    0.069241   -0.130091   -0.287931
siesta:    152   -0.135956    0.048983   -0.339523
siesta:    153    0.258828    0.112656   -0.444763
siesta:    154   -0.043541   -0.123943   -0.396735
siesta:    155   -0.223144    0.063940   -0.420863
siesta:    156    0.213178    0.074630   -0.475126
siesta:    157    0.013286   -0.259240   -0.439614
siesta:    158   -0.179524    0.090983   -0.593888
siesta:    159    0.223052    0.172960   -0.416400
siesta:    160    0.079886   -0.245876   -0.403042
siesta:    161   -0.238893    0.112423   -0.443290
siesta:    162    0.226826    0.168872   -0.545945
siesta:    163   -0.022969   -0.117723   -0.394547
siesta:    164   -0.148450    0.003770   -0.432283
siesta:    165    0.126570   -0.043043   -0.483664
siesta:    166    0.001837   -0.167338   -0.317988
siesta:    167   -0.115974    0.110237   -0.447048
siesta:    168    0.103182    0.089436   -0.349737
siesta:    169    0.088970   -0.215960   -0.317053
siesta:    170   -0.177683    0.097108   -0.355156
siesta:    171    0.123459    0.098769   -0.404860
siesta:    172    0.066262   -0.195027   -0.329331
siesta:    173   -0.151779    0.032835   -0.546425
siesta:    174    0.074781    0.137547   -0.345191
siesta:    175    0.022192   -0.110162   -0.374021
siesta:    176   -0.197542    0.018348   -0.440322
siesta:    177    0.123861   -0.064869   -0.379288
siesta:    178    0.052235   -0.441973   -0.483489
siesta:    179   -0.295456    0.283120   -0.710566
siesta:    180    0.179856    0.120381   -0.396329
siesta:    181    0.024118   -0.140883   -0.290243
siesta:    182   -0.174266    0.099991   -0.211512
siesta:    183    0.005629   -0.035863    0.447214
siesta:    184    0.025837    0.008647    0.446400
siesta:    185   -0.028209    0.026895    0.437173
siesta:    186   -0.000464   -0.027107    0.457752
siesta:    187    0.047113   -0.006207    0.461931
siesta:    188   -0.039981    0.055168    0.440037
siesta:    189   -0.015162   -0.012235    0.475257
siesta:    190    0.020888    0.022689    0.447600
siesta:    191   -0.038907    0.011605    0.433932
siesta:    192    0.016356   -0.043575    0.441480
siesta:    193    0.021824    0.003148    0.484704
siesta:    194   -0.043751   -0.007954    0.460600
siesta:    195    0.008514   -0.033353    0.452525
siesta:    196    0.029414    0.009495    0.463277
siesta:    197   -0.030485    0.028711    0.441138
siesta:    198    0.010164   -0.037800    0.437888
siesta:    199    0.022815   -0.001005    0.421174
siesta:    200   -0.025730    0.016572    0.458007
siesta:    201    0.010531   -0.024481    0.467362
siesta:    202    0.029328    0.008823    0.449321
siesta:    203   -0.030177    0.011920    0.451482
siesta:    204   -0.025191   -0.024424    0.431969
siesta:    205    0.046350    0.035423    0.449165
siesta:    206   -0.003998    0.032495    0.440144
siesta:    207   -0.006500   -0.042513    0.431796
siesta:    208    0.014915    0.005643    0.437391
siesta:    209   -0.035578    0.031166    0.433087
siesta:    210   -0.002241   -0.041933    0.421671
siesta:    211    0.041736    0.012025    0.446303
siesta:    212    0.001893    0.028528    0.433835
siesta:    213    0.017973   -0.008663    0.441179
siesta:    214    0.009500    0.018769    0.449593
siesta:    215   -0.035527    0.013802    0.454311
siesta:    216    0.001884   -0.034741    0.460246
siesta:    217    0.013200    0.016344    0.428778
siesta:    218   -0.019170    0.015645    0.438439
siesta:    219   -0.003495   -0.043025    0.474097
siesta:    220    0.023276    0.000623    0.462787
siesta:    221   -0.024355    0.022376    0.456883
siesta:    222    0.018334   -0.022701    0.449247
siesta:    223    0.006932    0.009785    0.447192
siesta:    224   -0.027191   -0.000131    0.430971
siesta:    225    0.001417   -0.027003    0.419386
siesta:    226    0.010823    0.027373    0.456093
siesta:    227   -0.009141   -0.008057    0.451042
siesta:    228    0.019526   -0.057230    0.441270
siesta:    229    0.004617   -0.010217    0.459267
siesta:    230   -0.032089    0.033400    0.441408
siesta: ----------------------------------------
siesta:    Tot    0.076995   -0.172698    1.439104

siesta: Stress tensor (static) (eV/Ang**3):
siesta:     0.008551   -0.000650    0.000037
siesta:    -0.000650    0.008163   -0.000163
siesta:     0.000037   -0.000163    0.004600

siesta: Cell volume =      10585.219648 Ang**3

siesta: Pressure (static):
siesta:                Solid            Molecule  Units
siesta:          -0.00007738         -0.00005925  Ry/Bohr**3
siesta:          -0.00710474         -0.00544011  eV/Ang**3
siesta:         -11.38316696         -8.71610736  kBar
(Free)E+ p_basis*V_orbitals  =     -648538.572261
(Free)Eharris+ p_basis*V_orbitals  =     -648538.572261

siesta: Electric dipole (a.u.)  =    0.000000    0.000000   -1.229748
siesta: Electric dipole (Debye) =    0.000000    0.000000   -3.125709

cite: Please see "Sn-Si-Ag.bib" for an exhaustive BiBTeX file.
cite: Please clearly indicate Siesta version in published work: unreleased efed74033 (2021-09-28)
cite: This calculation has made use of the following articles
cite: which are encouraged to be cited in a published work.
        Primary SIESTA paper
          DOI: www.doi.org/10.1088/0953-8984/14/11/302
 
 
>> End of run:   1-FEB-2022  14:55:09
Job completed
